 Entering Gaussian System, Link 0=g09
 Input=fosfina.com
 Output=fosfina.log
 Initial command:
 /uufs/chpc.utah.edu/sys/pkg/gaussian09/EM64T/g09/l1.exe /scratch/ibrix/chpc_gen/u0818159/249180.emrm.ipoib.privatearch.arches/Gau-27111.inp -scrdir=/scratch/ibrix/chpc_gen/u0818159/249180.emrm.ipoib.privatearch.arches/
 Entering Link 1 = /uufs/chpc.utah.edu/sys/pkg/gaussian09/EM64T/g09/l1.exe PID=     27114.
  
 Copyright (c) 1988,1990,1992,1993,1995,1998,2003,2009,2011,
            Gaussian, Inc.  All Rights Reserved.
  
 This is part of the Gaussian(R) 09 program.  It is based on
 the Gaussian(R) 03 system (copyright 2003, Gaussian, Inc.),
 the Gaussian(R) 98 system (copyright 1998, Gaussian, Inc.),
 the Gaussian(R) 94 system (copyright 1995, Gaussian, Inc.),
 the Gaussian 92(TM) system (copyright 1992, Gaussian, Inc.),
 the Gaussian 90(TM) system (copyright 1990, Gaussian, Inc.),
 the Gaussian 88(TM) system (copyright 1988, Gaussian, Inc.),
 the Gaussian 86(TM) system (copyright 1986, Carnegie Mellon
 University), and the Gaussian 82(TM) system (copyright 1983,
 Carnegie Mellon University). Gaussian is a federally registered
 trademark of Gaussian, Inc.
  
 This software contains proprietary and confidential information,
 including trade secrets, belonging to Gaussian, Inc.
  
 This software is provided under written license and may be
 used, copied, transmitted, or stored only in accord with that
 written license.
  
 The following legend is applicable only to US Government
 contracts under FAR:
  
                    RESTRICTED RIGHTS LEGEND
  
 Use, reproduction and disclosure by the US Government is
 subject to restrictions as set forth in subparagraphs (a)
 and (c) of the Commercial Computer Software - Restricted
 Rights clause in FAR 52.227-19.
  
 Gaussian, Inc.
 340 Quinnipiac St., Bldg. 40, Wallingford CT 06492
  
  
 ---------------------------------------------------------------
 Warning -- This program may not be used in any manner that
 competes with the business of Gaussian, Inc. or will provide
 assistance to any competitor of Gaussian, Inc.  The licensee
 of this program is prohibited from giving any competitor of
 Gaussian, Inc. access to this program.  By using this program,
 the user acknowledges that Gaussian, Inc. is engaged in the
 business of creating and licensing software in the field of
 computational chemistry and represents and warrants to the
 licensee that it is not a competitor of Gaussian, Inc. and that
 it will not use this program in any manner prohibited above.
 ---------------------------------------------------------------
  

 Cite this work as:
 Gaussian 09, Revision C.01,
 M. J. Frisch, G. W. Trucks, H. B. Schlegel, G. E. Scuseria, 
 M. A. Robb, J. R. Cheeseman, G. Scalmani, V. Barone, B. Mennucci, 
 G. A. Petersson, H. Nakatsuji, M. Caricato, X. Li, H. P. Hratchian, 
 A. F. Izmaylov, J. Bloino, G. Zheng, J. L. Sonnenberg, M. Hada, 
 M. Ehara, K. Toyota, R. Fukuda, J. Hasegawa, M. Ishida, T. Nakajima, 
 Y. Honda, O. Kitao, H. Nakai, T. Vreven, J. A. Montgomery, Jr., 
 J. E. Peralta, F. Ogliaro, M. Bearpark, J. J. Heyd, E. Brothers, 
 K. N. Kudin, V. N. Staroverov, T. Keith, R. Kobayashi, J. Normand, 
 K. Raghavachari, A. Rendell, J. C. Burant, S. S. Iyengar, J. Tomasi, 
 M. Cossi, N. Rega, J. M. Millam, M. Klene, J. E. Knox, J. B. Cross, 
 V. Bakken, C. Adamo, J. Jaramillo, R. Gomperts, R. E. Stratmann, 
 O. Yazyev, A. J. Austin, R. Cammi, C. Pomelli, J. W. Ochterski, 
 R. L. Martin, K. Morokuma, V. G. Zakrzewski, G. A. Voth, 
 P. Salvador, J. J. Dannenberg, S. Dapprich, A. D. Daniels, 
 O. Farkas, J. B. Foresman, J. V. Ortiz, J. Cioslowski, 
 and D. J. Fox, Gaussian, Inc., Wallingford CT, 2010.
 
 ******************************************
 Gaussian 09:  EM64L-G09RevC.01 23-Sep-2011
                 6-Jul-2012 
 ******************************************
 %chk=pdto.chk
 %mem=12GB
 %nprocshared=12
 Will use up to   12 processors via shared memory.
 -------------------------------------------------------
 # opt lanl2dz nosymm geom=connectivity m062x output=wfx
 -------------------------------------------------------
 1/14=-1,18=20,19=15,26=3,38=1,57=2/1,3;
 2/9=110,12=2,15=1,17=6,18=5,40=1/2;
 3/5=6,6=3,11=2,16=1,25=1,30=1,71=1,74=-55/1,2,3;
 4//1;
 5/5=2,38=5/2;
 6/7=2,8=2,9=2,10=2,28=1/1;
 7/30=1/1,2,3,16;
 1/14=-1,18=20,19=15/3(2);
 2/9=110,15=1/2;
 99/6=200/99;
 2/9=110,15=1/2;
 3/5=6,6=3,11=2,16=1,25=1,30=1,71=1,74=-55/1,2,3;
 4/5=5,16=3/1;
 5/5=2,38=5/2;
 7/30=1/1,2,3,16;
 1/14=-1,18=20,19=15/3(-5);
 2/9=110,15=1/2;
 6/7=2,8=2,9=2,10=2,19=2,28=1/1;
 99/6=200,9=1/99;
 ----
 pdto
 ----
 Charge =  0 Multiplicity = 1
 Symbolic Z-Matrix:
 P                    -0.67876  -0.07451  -1.24259 
 C                    -1.73121  -1.56783  -1.62947 
 C                    -2.33346  -2.25942  -0.56434 
 H                    -2.15804  -1.92792   0.45633 
 C                    -3.1505   -3.37281  -0.81548 
 H                    -3.61572  -3.90125   0.01006 
 C                    -3.3623   -3.80417  -2.13315 
 H                    -3.98994  -4.66711  -2.32941 
 C                    -2.75671  -3.12007  -3.20023 
 H                    -2.91532  -3.45402  -4.22004 
 C                    -1.94606  -2.00398  -2.9502 
 H                    -1.47402  -1.48163  -3.77858 
 C                    -1.77466   1.37115  -1.72138 
 C                    -2.96158   1.20705  -2.45387 
 H                    -3.29583   0.21544  -2.74183 
 C                    -3.73433   2.32564  -2.80784 
 H                    -4.6513    2.18758  -3.37075 
 C                    -3.32543   3.61504  -2.43779 
 H                    -3.92229   4.47705  -2.71637 
 C                    -2.14342   3.78548  -1.69883 
 H                    -1.82426   4.77829  -1.39991 
 C                    -1.3776    2.6676   -1.33867 
 H                    -0.48016   2.80593  -0.73761 
 C                     0.56494  -0.10614  -2.64521 
 C                     1.28433  -1.29729  -2.86358 
 H                     1.05081  -2.18455  -2.27862 
 C                     2.28376  -1.35341  -3.84214 
 H                     2.82525  -2.27938  -4.00697 
 C                     2.58079  -0.21452  -4.61085 
 H                     3.35244  -0.2579   -5.37239 
 C                     1.861     0.97034  -4.4036 
 H                     2.07025   1.84656  -5.00851 
 C                     0.85226   1.02451  -3.42567 
 H                     0.28491   1.9419   -3.29396 
 

 GradGradGradGradGradGradGradGradGradGradGradGradGradGradGradGradGradGrad
 Berny optimization.
 Initialization pass.
                           ----------------------------
                           !    Initial Parameters    !
                           ! (Angstroms and Degrees)  !
 --------------------------                            --------------------------
 ! Name  Definition              Value          Derivative Info.                !
 --------------------------------------------------------------------------------
 ! R1    R(1,2)                  1.8674         estimate D2E/DX2                !
 ! R2    R(1,13)                 1.8762         estimate D2E/DX2                !
 ! R3    R(1,24)                 1.8749         estimate D2E/DX2                !
 ! R4    R(2,3)                  1.4055         estimate D2E/DX2                !
 ! R5    R(2,11)                 1.4074         estimate D2E/DX2                !
 ! R6    R(3,4)                  1.0874         estimate D2E/DX2                !
 ! R7    R(3,5)                  1.4037         estimate D2E/DX2                !
 ! R8    R(5,6)                  1.085          estimate D2E/DX2                !
 ! R9    R(5,7)                  1.4026         estimate D2E/DX2                !
 ! R10   R(7,8)                  1.0849         estimate D2E/DX2                !
 ! R11   R(7,9)                  1.4048         estimate D2E/DX2                !
 ! R12   R(9,10)                 1.0848         estimate D2E/DX2                !
 ! R13   R(9,11)                 1.4019         estimate D2E/DX2                !
 ! R14   R(11,12)                1.0871         estimate D2E/DX2                !
 ! R15   R(13,14)                1.4044         estimate D2E/DX2                !
 ! R16   R(13,22)                1.4089         estimate D2E/DX2                !
 ! R17   R(14,15)                1.0853         estimate D2E/DX2                !
 ! R18   R(14,16)                1.4049         estimate D2E/DX2                !
 ! R19   R(16,17)                1.0848         estimate D2E/DX2                !
 ! R20   R(16,18)                1.4024         estimate D2E/DX2                !
 ! R21   R(18,19)                1.0849         estimate D2E/DX2                !
 ! R22   R(18,20)                1.4044         estimate D2E/DX2                !
 ! R23   R(20,21)                1.0848         estimate D2E/DX2                !
 ! R24   R(20,22)                1.4021         estimate D2E/DX2                !
 ! R25   R(22,23)                1.0889         estimate D2E/DX2                !
 ! R26   R(24,25)                1.4086         estimate D2E/DX2                !
 ! R27   R(24,33)                1.4036         estimate D2E/DX2                !
 ! R28   R(25,26)                1.0881         estimate D2E/DX2                !
 ! R29   R(25,27)                1.3999         estimate D2E/DX2                !
 ! R30   R(27,28)                1.0853         estimate D2E/DX2                !
 ! R31   R(27,29)                1.4058         estimate D2E/DX2                !
 ! R32   R(29,30)                1.085          estimate D2E/DX2                !
 ! R33   R(29,31)                1.4018         estimate D2E/DX2                !
 ! R34   R(31,32)                1.0851         estimate D2E/DX2                !
 ! R35   R(31,33)                1.406          estimate D2E/DX2                !
 ! R36   R(33,34)                1.0867         estimate D2E/DX2                !
 ! A1    A(2,1,13)             103.5386         estimate D2E/DX2                !
 ! A2    A(2,1,24)             101.8513         estimate D2E/DX2                !
 ! A3    A(13,1,24)            102.0963         estimate D2E/DX2                !
 ! A4    A(1,2,3)              118.5525         estimate D2E/DX2                !
 ! A5    A(1,2,11)             121.8887         estimate D2E/DX2                !
 ! A6    A(3,2,11)             119.5549         estimate D2E/DX2                !
 ! A7    A(2,3,4)              119.4841         estimate D2E/DX2                !
 ! A8    A(2,3,5)              120.2734         estimate D2E/DX2                !
 ! A9    A(4,3,5)              120.242          estimate D2E/DX2                !
 ! A10   A(3,5,6)              119.9851         estimate D2E/DX2                !
 ! A11   A(3,5,7)              119.9955         estimate D2E/DX2                !
 ! A12   A(6,5,7)              120.0192         estimate D2E/DX2                !
 ! A13   A(5,7,8)              120.1267         estimate D2E/DX2                !
 ! A14   A(5,7,9)              119.9183         estimate D2E/DX2                !
 ! A15   A(8,7,9)              119.9546         estimate D2E/DX2                !
 ! A16   A(7,9,10)             120.078          estimate D2E/DX2                !
 ! A17   A(7,9,11)             120.0995         estimate D2E/DX2                !
 ! A18   A(10,9,11)            119.8226         estimate D2E/DX2                !
 ! A19   A(2,11,9)             120.1568         estimate D2E/DX2                !
 ! A20   A(2,11,12)            119.9919         estimate D2E/DX2                !
 ! A21   A(9,11,12)            119.8479         estimate D2E/DX2                !
 ! A22   A(1,13,14)            122.4611         estimate D2E/DX2                !
 ! A23   A(1,13,22)            118.3659         estimate D2E/DX2                !
 ! A24   A(14,13,22)           119.17           estimate D2E/DX2                !
 ! A25   A(13,14,15)           120.3603         estimate D2E/DX2                !
 ! A26   A(13,14,16)           120.2161         estimate D2E/DX2                !
 ! A27   A(15,14,16)           119.4201         estimate D2E/DX2                !
 ! A28   A(14,16,17)           119.6283         estimate D2E/DX2                !
 ! A29   A(14,16,18)           120.3448         estimate D2E/DX2                !
 ! A30   A(17,16,18)           120.027          estimate D2E/DX2                !
 ! A31   A(16,18,19)           120.1582         estimate D2E/DX2                !
 ! A32   A(16,18,20)           119.7248         estimate D2E/DX2                !
 ! A33   A(19,18,20)           120.1162         estimate D2E/DX2                !
 ! A34   A(18,20,21)           120.243          estimate D2E/DX2                !
 ! A35   A(18,20,22)           119.8759         estimate D2E/DX2                !
 ! A36   A(21,20,22)           119.8798         estimate D2E/DX2                !
 ! A37   A(13,22,20)           120.6612         estimate D2E/DX2                !
 ! A38   A(13,22,23)           119.9407         estimate D2E/DX2                !
 ! A39   A(20,22,23)           119.383          estimate D2E/DX2                !
 ! A40   A(1,24,25)            117.9718         estimate D2E/DX2                !
 ! A41   A(1,24,33)            122.5604         estimate D2E/DX2                !
 ! A42   A(25,24,33)           119.371          estimate D2E/DX2                !
 ! A43   A(24,25,26)           119.7766         estimate D2E/DX2                !
 ! A44   A(24,25,27)           120.4581         estimate D2E/DX2                !
 ! A45   A(26,25,27)           119.7581         estimate D2E/DX2                !
 ! A46   A(25,27,28)           119.7752         estimate D2E/DX2                !
 ! A47   A(25,27,29)           120.0416         estimate D2E/DX2                !
 ! A48   A(28,27,29)           120.1829         estimate D2E/DX2                !
 ! A49   A(27,29,30)           120.1107         estimate D2E/DX2                !
 ! A50   A(27,29,31)           119.6991         estimate D2E/DX2                !
 ! A51   A(30,29,31)           120.1822         estimate D2E/DX2                !
 ! A52   A(29,31,32)           120.0729         estimate D2E/DX2                !
 ! A53   A(29,31,33)           120.252          estimate D2E/DX2                !
 ! A54   A(32,31,33)           119.6687         estimate D2E/DX2                !
 ! A55   A(24,33,31)           120.171          estimate D2E/DX2                !
 ! A56   A(24,33,34)           120.384          estimate D2E/DX2                !
 ! A57   A(31,33,34)           119.4335         estimate D2E/DX2                !
 ! D1    D(13,1,2,3)          -104.2598         estimate D2E/DX2                !
 ! D2    D(13,1,2,11)           75.009          estimate D2E/DX2                !
 ! D3    D(24,1,2,3)           150.0301         estimate D2E/DX2                !
 ! D4    D(24,1,2,11)          -30.701          estimate D2E/DX2                !
 ! D5    D(2,1,13,14)          -11.6328         estimate D2E/DX2                !
 ! D6    D(2,1,13,22)          168.9937         estimate D2E/DX2                !
 ! D7    D(24,1,13,14)          93.8913         estimate D2E/DX2                !
 ! D8    D(24,1,13,22)         -85.4821         estimate D2E/DX2                !
 ! D9    D(2,1,24,25)          -53.2761         estimate D2E/DX2                !
 ! D10   D(2,1,24,33)          130.3269         estimate D2E/DX2                !
 ! D11   D(13,1,24,25)        -160.1104         estimate D2E/DX2                !
 ! D12   D(13,1,24,33)          23.4926         estimate D2E/DX2                !
 ! D13   D(1,2,3,4)             -1.3684         estimate D2E/DX2                !
 ! D14   D(1,2,3,5)            178.8983         estimate D2E/DX2                !
 ! D15   D(11,2,3,4)           179.3452         estimate D2E/DX2                !
 ! D16   D(11,2,3,5)            -0.3881         estimate D2E/DX2                !
 ! D17   D(1,2,11,9)          -179.1952         estimate D2E/DX2                !
 ! D18   D(1,2,11,12)            1.478          estimate D2E/DX2                !
 ! D19   D(3,2,11,9)             0.0665         estimate D2E/DX2                !
 ! D20   D(3,2,11,12)         -179.2603         estimate D2E/DX2                !
 ! D21   D(2,3,5,6)           -179.7988         estimate D2E/DX2                !
 ! D22   D(2,3,5,7)              0.3792         estimate D2E/DX2                !
 ! D23   D(4,3,5,6)              0.47           estimate D2E/DX2                !
 ! D24   D(4,3,5,7)           -179.352          estimate D2E/DX2                !
 ! D25   D(3,5,7,8)            179.7331         estimate D2E/DX2                !
 ! D26   D(3,5,7,9)             -0.0471         estimate D2E/DX2                !
 ! D27   D(6,5,7,8)             -0.0888         estimate D2E/DX2                !
 ! D28   D(6,5,7,9)           -179.869          estimate D2E/DX2                !
 ! D29   D(5,7,9,10)           179.7379         estimate D2E/DX2                !
 ! D30   D(5,7,9,11)            -0.2738         estimate D2E/DX2                !
 ! D31   D(8,7,9,10)            -0.0427         estimate D2E/DX2                !
 ! D32   D(8,7,9,11)           179.9455         estimate D2E/DX2                !
 ! D33   D(7,9,11,2)             0.2639         estimate D2E/DX2                !
 ! D34   D(7,9,11,12)          179.5916         estimate D2E/DX2                !
 ! D35   D(10,9,11,2)         -179.7478         estimate D2E/DX2                !
 ! D36   D(10,9,11,12)          -0.4201         estimate D2E/DX2                !
 ! D37   D(1,13,14,15)           1.8392         estimate D2E/DX2                !
 ! D38   D(1,13,14,16)        -178.8473         estimate D2E/DX2                !
 ! D39   D(22,13,14,15)       -178.7922         estimate D2E/DX2                !
 ! D40   D(22,13,14,16)          0.5213         estimate D2E/DX2                !
 ! D41   D(1,13,22,20)         178.4534         estimate D2E/DX2                !
 ! D42   D(1,13,22,23)          -2.9696         estimate D2E/DX2                !
 ! D43   D(14,13,22,20)         -0.9411         estimate D2E/DX2                !
 ! D44   D(14,13,22,23)        177.6358         estimate D2E/DX2                !
 ! D45   D(13,14,16,17)       -179.7859         estimate D2E/DX2                !
 ! D46   D(13,14,16,18)          0.2405         estimate D2E/DX2                !
 ! D47   D(15,14,16,17)         -0.466          estimate D2E/DX2                !
 ! D48   D(15,14,16,18)        179.5605         estimate D2E/DX2                !
 ! D49   D(14,16,18,19)        179.7399         estimate D2E/DX2                !
 ! D50   D(14,16,18,20)         -0.592          estimate D2E/DX2                !
 ! D51   D(17,16,18,19)         -0.2336         estimate D2E/DX2                !
 ! D52   D(17,16,18,20)        179.4345         estimate D2E/DX2                !
 ! D53   D(16,18,20,21)       -179.4098         estimate D2E/DX2                !
 ! D54   D(16,18,20,22)          0.1754         estimate D2E/DX2                !
 ! D55   D(19,18,20,21)          0.2584         estimate D2E/DX2                !
 ! D56   D(19,18,20,22)        179.8436         estimate D2E/DX2                !
 ! D57   D(18,20,22,13)          0.5955         estimate D2E/DX2                !
 ! D58   D(18,20,22,23)       -177.9893         estimate D2E/DX2                !
 ! D59   D(21,20,22,13)       -179.8178         estimate D2E/DX2                !
 ! D60   D(21,20,22,23)          1.5974         estimate D2E/DX2                !
 ! D61   D(1,24,25,26)           4.937          estimate D2E/DX2                !
 ! D62   D(1,24,25,27)        -176.0456         estimate D2E/DX2                !
 ! D63   D(33,24,25,26)       -178.5475         estimate D2E/DX2                !
 ! D64   D(33,24,25,27)          0.4699         estimate D2E/DX2                !
 ! D65   D(1,24,33,31)         175.5359         estimate D2E/DX2                !
 ! D66   D(1,24,33,34)          -5.7027         estimate D2E/DX2                !
 ! D67   D(25,24,33,31)         -0.8126         estimate D2E/DX2                !
 ! D68   D(25,24,33,34)        177.9488         estimate D2E/DX2                !
 ! D69   D(24,25,27,28)       -179.4708         estimate D2E/DX2                !
 ! D70   D(24,25,27,29)          0.3231         estimate D2E/DX2                !
 ! D71   D(26,25,27,28)         -0.4532         estimate D2E/DX2                !
 ! D72   D(26,25,27,29)        179.3406         estimate D2E/DX2                !
 ! D73   D(25,27,29,30)       -179.7507         estimate D2E/DX2                !
 ! D74   D(25,27,29,31)         -0.7727         estimate D2E/DX2                !
 ! D75   D(28,27,29,30)          0.0423         estimate D2E/DX2                !
 ! D76   D(28,27,29,31)        179.0203         estimate D2E/DX2                !
 ! D77   D(27,29,31,32)       -178.6484         estimate D2E/DX2                !
 ! D78   D(27,29,31,33)          0.43           estimate D2E/DX2                !
 ! D79   D(30,29,31,32)          0.3289         estimate D2E/DX2                !
 ! D80   D(30,29,31,33)        179.4072         estimate D2E/DX2                !
 ! D81   D(29,31,33,24)          0.3661         estimate D2E/DX2                !
 ! D82   D(29,31,33,34)       -178.4071         estimate D2E/DX2                !
 ! D83   D(32,31,33,24)        179.4482         estimate D2E/DX2                !
 ! D84   D(32,31,33,34)          0.675          estimate D2E/DX2                !
 --------------------------------------------------------------------------------
 Trust Radius=3.00D-01 FncErr=1.00D-07 GrdErr=1.00D-06
 Number of steps in this run=    187 maximum allowed number of steps=    204.
 GradGradGradGradGradGradGradGradGradGradGradGradGradGradGradGradGradGrad

                          Input orientation:                          
 ---------------------------------------------------------------------
 Center     Atomic      Atomic             Coordinates (Angstroms)
 Number     Number       Type             X           Y           Z
 ---------------------------------------------------------------------
      1         15           0       -0.678758   -0.074510   -1.242589
      2          6           0       -1.731209   -1.567832   -1.629470
      3          6           0       -2.333457   -2.259424   -0.564342
      4          1           0       -2.158042   -1.927918    0.456326
      5          6           0       -3.150505   -3.372812   -0.815478
      6          1           0       -3.615715   -3.901245    0.010059
      7          6           0       -3.362302   -3.804167   -2.133150
      8          1           0       -3.989938   -4.667106   -2.329406
      9          6           0       -2.756708   -3.120073   -3.200227
     10          1           0       -2.915319   -3.454020   -4.220036
     11          6           0       -1.946057   -2.003984   -2.950197
     12          1           0       -1.474023   -1.481627   -3.778580
     13          6           0       -1.774660    1.371154   -1.721375
     14          6           0       -2.961575    1.207055   -2.453868
     15          1           0       -3.295833    0.215437   -2.741831
     16          6           0       -3.734325    2.325638   -2.807844
     17          1           0       -4.651295    2.187579   -3.370745
     18          6           0       -3.325430    3.615042   -2.437787
     19          1           0       -3.922292    4.477045   -2.716366
     20          6           0       -2.143419    3.785476   -1.698834
     21          1           0       -1.824262    4.778285   -1.399905
     22          6           0       -1.377595    2.667598   -1.338673
     23          1           0       -0.480157    2.805933   -0.737611
     24          6           0        0.564943   -0.106140   -2.645211
     25          6           0        1.284327   -1.297289   -2.863580
     26          1           0        1.050811   -2.184549   -2.278625
     27          6           0        2.283757   -1.353408   -3.842141
     28          1           0        2.825250   -2.279378   -4.006965
     29          6           0        2.580786   -0.214520   -4.610853
     30          1           0        3.352435   -0.257902   -5.372392
     31          6           0        1.860997    0.970343   -4.403601
     32          1           0        2.070248    1.846559   -5.008514
     33          6           0        0.852259    1.024512   -3.425669
     34          1           0        0.284906    1.941897   -3.293964
 ---------------------------------------------------------------------
                    Distance matrix (angstroms):
                    1          2          3          4          5
     1  P    0.000000
     2  C    1.867442   0.000000
     3  C    2.823455   1.405525   0.000000
     4  H    2.917142   2.159258   1.087396   0.000000
     5  C    4.143761   2.436173   1.403663   2.165684   0.000000
     6  H    4.983848   3.418221   2.160948   2.493589   1.084976
     7  C    4.680262   2.813424   2.430208   3.417007   1.402564
     8  H    5.765156   3.898367   3.414134   4.315008   2.161440
     9  C    4.174407   2.434826   2.804951   3.892302   2.430222
    10  H    5.028766   3.416263   3.889694   4.977029   3.413638
    11  C    2.871383   1.407376   2.430562   3.413960   2.807385
    12  H    3.007270   2.166160   3.416858   4.312944   3.894502
    13  C    1.876215   2.940744   3.851243   3.971554   5.021834
    14  C    2.884590   3.145382   3.997664   4.352350   4.867771
    15  H    3.029996   2.620199   3.434030   4.014567   4.075228
    16  C    4.188941   4.534330   5.293253   5.588579   6.064874
    17  H    5.042534   5.065773   5.746660   6.148178   6.300770
    18  C    4.695334   5.482436   6.245251   6.361060   7.175834
    19  H    5.780068   6.520945   7.248146   7.362208   8.113525
    20  C    4.153659   5.369603   6.153373   6.106374   7.282556
    21  H    4.988642   6.350950   7.105406   6.966359   8.278941
    22  C    2.831389   4.260102   5.078268   4.994986   6.316921
    23  H    2.931108   4.635770   5.396534   5.162376   6.731546
    24  C    1.874871   2.905269   4.167418   4.511436   5.274810
    25  C    2.824270   3.269507   4.393240   4.823834   5.307566
    26  H    2.918398   2.922563   3.794423   4.224045   4.604761
    27  C    4.143639   4.589318   5.734413   6.207774   6.539869
    28  H    4.978081   5.188458   6.201960   6.699081   6.862276
    29  C    4.689289   5.414185   6.686230   7.146225   7.564878
    30  H    5.774030   6.447388   7.710564   8.193184   8.529734
    31  C    4.187370   5.200200   6.539476   6.940568   7.540078
    32  H    5.042790   6.125935   7.483474   7.873347   8.489973
    33  C    2.884042   4.076872   5.396315   5.731373   6.493972
    34  H    3.033593   4.376466   5.653119   5.916768   6.796401
                    6          7          8          9         10
     6  H    0.000000
     7  C    2.160321   0.000000
     8  H    2.489916   1.084946   0.000000
     9  C    3.413804   1.404771   2.161596   0.000000
    10  H    4.310948   2.162751   2.490154   1.084753   0.000000
    11  C    3.892361   2.431866   3.413949   1.401900   2.157444
    12  H    4.979476   3.415733   4.310129   2.159694   2.482449
    13  C    5.846840   5.429007   6.460475   4.829342   5.552181
    14  C    5.709077   5.037439   5.964796   4.395800   4.984687
    15  H    4.962086   4.065972   4.948849   3.409752   3.974267
    16  C    6.835841   6.178035   7.013751   5.546663   6.005789
    17  H    7.041025   6.252533   6.964803   5.638236   5.963434
    18  C    7.910170   7.425552   8.309470   6.801951   7.301797
    19  H    8.816072   8.320589   9.152585   7.701228   8.134913
    20  C    8.010846   7.699155   8.674872   7.093441   7.704712
    21  H    8.973937   8.749954   9.734965   8.154427   8.770085
    22  C    7.069509   6.815717   7.848807   6.234138   6.938376
    23  H    7.441570   7.344911   8.408251   6.809164   7.565997
    24  C    6.239486   5.418567   6.453610   4.519425   5.079429
    25  C    6.248904   5.330021   6.281630   4.445879   4.912076
    26  H    5.473718   4.703179   5.619147   4.027624   4.594651
    27  C    7.492309   6.387868   7.254530   5.379540   5.620122
    28  H    7.762278   6.642437   7.413652   5.702267   5.863388
    29  C    8.563959   7.371897   8.258628   6.238665   6.391734
    30  H    9.528895   8.255688   9.089075   7.087450   7.129364
    31  C    8.556117   7.431941   8.385497   6.285126   6.513208
    32  H    9.515960   8.349313   9.291464   7.157991   7.319407
    33  C    7.485326   6.538293   7.552694   5.500277   5.906176
    34  H    7.763615   6.904120   7.929917   5.906246   6.341527
                   11         12         13         14         15
    11  C    0.000000
    12  H    1.087148   0.000000
    13  C    3.595961   3.529991   0.000000
    14  C    3.404173   3.346145   1.404365   0.000000
    15  H    2.605982   2.697011   2.165867   1.085337   0.000000
    16  C    4.686555   4.532831   2.435517   1.404873   2.156289
    17  H    5.006433   4.870776   3.414967   2.158065   2.474299
    18  C    5.808501   5.585827   2.820136   2.435375   3.413302
    19  H    6.779670   6.529019   3.904983   3.418292   4.307482
    20  C    5.926441   5.702263   2.442425   2.808507   3.893723
    21  H    6.958262   6.705763   3.422623   3.893328   4.978541
    22  C    4.974318   4.814407   1.408861   2.426075   3.414906
    23  H    5.493605   5.349620   2.168437   3.414584   4.319213
    24  C    3.162270   2.708112   2.917124   3.767947   3.875350
    25  C    3.307915   2.911992   4.216945   4.946442   4.825042
    26  H    3.076496   3.019727   4.575679   5.256703   4.986763
    27  C    4.371515   3.760504   5.328380   5.999732   5.899473
    28  H    4.894688   4.378620   6.301546   6.932147   6.729957
    29  C    5.143177   4.328939   5.461992   6.114836   6.181647
    30  H    6.081928   5.228043   6.501604   7.108488   7.165429
    31  C    5.045063   4.186307   4.535746   5.207177   5.470307
    32  H    5.932458   5.015119   5.080808   5.679298   6.049234
    33  C    4.150715   3.437567   3.150473   3.939930   4.281227
    34  H    4.545916   3.879330   2.653412   3.432986   4.013378
                   16         17         18         19         20
    16  C    0.000000
    17  H    1.084782   0.000000
    18  C    1.402391   2.160088   0.000000
    19  H    2.161539   2.490243   1.084850   0.000000
    20  C    2.427347   3.411452   1.404368   2.162875   0.000000
    21  H    3.412640   4.311390   2.164218   2.495104   1.084845
    22  C    2.798138   3.882892   2.428943   3.412861   1.402089
    23  H    3.886664   4.971333   3.411867   4.307712   2.156361
    24  C    4.942034   5.744274   5.387506   6.414509   4.834825
    25  C    6.189958   6.901676   6.749974   7.776470   6.240238
    26  H    6.596922   7.267891   7.267192   8.324674   6.795621
    27  C    7.128987   7.801010   7.623692   8.589330   7.113493
    28  H    8.103832   8.732537   8.662411   9.635571   8.172980
    29  C    7.041582   7.720812   7.366895   8.239532   6.840902
    30  H    7.967042   8.605037   8.258661   9.077216   7.749087
    31  C    5.974186   6.705103   6.144744   6.970664   5.592503
    32  H    6.226197   6.926595   6.232938   6.934258   5.698102
    33  C    4.807431   5.625375   5.013965   5.934596   4.424813
    34  H    4.066668   4.942908   4.070255   4.945817   3.440928
                   21         22         23         24         25
    21  H    0.000000
    22  C    2.158300   0.000000
    23  H    2.476979   1.088948   0.000000
    24  C    5.578234   3.629617   3.634741   0.000000
    25  C    6.979847   5.013133   4.946674   1.408558   0.000000
    26  H    7.584145   5.506723   5.442747   2.165695   1.088087
    27  C    7.774188   5.986764   5.880259   2.437753   1.399854
    28  H    8.844509   7.018280   6.890194   3.418527   2.155521
    29  C    7.392073   5.889189   5.787444   2.817644   2.430259
    30  H    8.242695   6.870417   6.749596   3.902648   3.413434
    31  C    6.091284   4.771052   4.721215   2.435263   2.801137
    32  H    6.065005   5.101907   5.066120   3.415286   3.886154
    33  C    5.035702   3.468073   3.489190   1.403581   2.427630
    34  H    4.010130   2.667155   2.804785   2.166508   3.417075
                   26         27         28         29         30
    26  H    0.000000
    27  C    2.157669   0.000000
    28  H    2.478868   1.085266   0.000000
    29  C    3.414839   1.405777   2.165198   0.000000
    30  H    4.310549   2.164226   2.495732   1.085019   0.000000
    31  C    3.889122   2.427711   3.412886   1.401767   2.161372
    32  H    4.974071   3.412594   4.312364   2.160285   2.491017
    33  C    3.413679   2.806624   3.891823   2.434680   3.418362
    34  H    4.317995   3.892934   4.978040   3.414000   4.309143
                   31         32         33         34
    31  C    0.000000
    32  H    1.085108   0.000000
    33  C    1.406001   2.159782   0.000000
    34  H    2.158535   2.477139   1.086660   0.000000
 Symmetry turned off by external request.
 Stoichiometry    C18H15P
 Framework group  C1[X(C18H15P)]
 Deg. of freedom    96
 Full point group                 C1      NOp   1
 Rotational constants (GHZ):      0.3661141      0.3395931      0.2056831
 Standard basis: LANL2DZ (5D, 7F)
 Integral buffers will be    131072 words long.
 Raffenetti 2 integral format.
 Two-electron integral symmetry is turned off.
   200 basis functions,   522 primitive gaussians,   200 cartesian basis functions
    64 alpha electrons       64 beta electrons
       nuclear repulsion energy      1195.2927264818 Hartrees.
 NAtoms=   34 NActive=   34 NUniq=   34 SFac= 1.00D+00 NAtFMM=   60 NAOKFM=F Big=F
 One-electron integrals computed using PRISM.
   1 Symmetry operations used in ECPInt.
 ECPInt:  NShTT=    7750 NPrTT=   57167 LenC2=    7341 LenP2D=   32243.
 LDataN:  DoStor=T MaxTD1= 3 Len=   28
 NBasis=   200 RedAO= T  NBF=   200
 NBsUse=   200 1.00D-06 NBFU=   200
 Harris functional with IExCor= 1009 diagonalized for initial guess.
 ExpMin= 1.15D-01 ExpMax= 4.23D+03 ExpMxC= 1.46D+02 IAcc=1 IRadAn=         1 AccDes= 0.00D+00
 HarFok:  IExCor= 1009 AccDes= 0.00D+00 IRadAn=         1 IDoV= 1
 ScaDFX=  1.000000  1.000000  1.000000  1.000000
 FoFCou: FMM=F IPFlag=           0 FMFlag=      100000 FMFlg1=           0
         NFxFlg=           0 DoJE=T BraDBF=F KetDBF=T FulRan=T
         Omega=  0.000000  0.000000  1.000000  0.000000  0.000000 ICntrl=     500 IOpCl=  0
         NMat0=    1 NMatS0=    1 NMatT0=    0 NMatD0=    1 NMtDS0=    0 NMtDT0=    0
         I1Cent=           4 NGrid=           0.
 Symmetry not used in FoFCou.
 Requested convergence on RMS density matrix=1.00D-08 within 128 cycles.
 Requested convergence on MAX density matrix=1.00D-06.
 Requested convergence on             energy=1.00D-06.
 No special actions if energy rises.
 Keep R1 ints in memory in canonical form, NReq=206506253.
 Integral accuracy reduced to 1.0D-05 until final iterations.
 Initial convergence to 1.0D-05 achieved.  Increase integral accuracy.
 SCF Done:  E(RM062X) =  -701.026166885     A.U. after   16 cycles
             Convg  =    0.5757D-08             -V/T =  2.0114

 **********************************************************************

            Population analysis using the SCF density.

 **********************************************************************

 Alpha  occ. eigenvalues --  -10.57127 -10.57065 -10.57045 -10.57023 -10.56885
 Alpha  occ. eigenvalues --  -10.56854 -10.56835 -10.56809 -10.56804 -10.56710
 Alpha  occ. eigenvalues --  -10.56645 -10.56535 -10.56446 -10.56349 -10.56283
 Alpha  occ. eigenvalues --  -10.56265 -10.56175 -10.56144  -0.96909  -0.96194
 Alpha  occ. eigenvalues --   -0.95808  -0.87068  -0.84982  -0.84804  -0.84466
 Alpha  occ. eigenvalues --   -0.84020  -0.83904  -0.73529  -0.69714  -0.69239
 Alpha  occ. eigenvalues --   -0.68857  -0.68037  -0.67882  -0.63969  -0.59720
 Alpha  occ. eigenvalues --   -0.59472  -0.57273  -0.53101  -0.52810  -0.52335
 Alpha  occ. eigenvalues --   -0.52006  -0.51771  -0.51581  -0.49676  -0.49391
 Alpha  occ. eigenvalues --   -0.49109  -0.47602  -0.47173  -0.44345  -0.44056
 Alpha  occ. eigenvalues --   -0.43463  -0.43029  -0.41078  -0.40878  -0.40547
 Alpha  occ. eigenvalues --   -0.37980  -0.37809  -0.33512  -0.31582  -0.31462
 Alpha  occ. eigenvalues --   -0.30957  -0.30438  -0.30382  -0.25904
 Alpha virt. eigenvalues --    0.00158   0.01165   0.01402   0.02455   0.02632
 Alpha virt. eigenvalues --    0.03005   0.09824   0.11654   0.15075   0.17520
 Alpha virt. eigenvalues --    0.17937   0.18109   0.18691   0.19524   0.19862
 Alpha virt. eigenvalues --    0.20099   0.20321   0.20587   0.20740   0.21203
 Alpha virt. eigenvalues --    0.21372   0.21967   0.23075   0.23781   0.23975
 Alpha virt. eigenvalues --    0.24333   0.24850   0.25898   0.27449   0.28113
 Alpha virt. eigenvalues --    0.28582   0.30100   0.30221   0.32343   0.33076
 Alpha virt. eigenvalues --    0.33610   0.33961   0.34165   0.34857   0.35410
 Alpha virt. eigenvalues --    0.35784   0.36534   0.36910   0.37489   0.38054
 Alpha virt. eigenvalues --    0.39077   0.39842   0.40204   0.40683   0.41745
 Alpha virt. eigenvalues --    0.42750   0.42858   0.43453   0.43835   0.43978
 Alpha virt. eigenvalues --    0.44246   0.44359   0.44519   0.45178   0.45693
 Alpha virt. eigenvalues --    0.46385   0.47471   0.48404   0.49161   0.49440
 Alpha virt. eigenvalues --    0.50242   0.51116   0.51451   0.51991   0.52512
 Alpha virt. eigenvalues --    0.53234   0.54049   0.54656   0.54989   0.55522
 Alpha virt. eigenvalues --    0.55890   0.58034   0.58847   0.60606   0.60910
 Alpha virt. eigenvalues --    0.61497   0.64020   0.64706   0.65350   0.66879
 Alpha virt. eigenvalues --    0.68604   0.68873   0.70561   0.70718   0.72683
 Alpha virt. eigenvalues --    0.73205   0.74387   0.74725   0.76506   0.76858
 Alpha virt. eigenvalues --    0.77237   0.77857   0.82604   0.84621   0.85598
 Alpha virt. eigenvalues --    0.86062   0.87475   0.88408   0.98301   1.00566
 Alpha virt. eigenvalues --    1.11697   1.12420   1.12800   1.13787   1.14253
 Alpha virt. eigenvalues --    1.16647   1.17289   1.19193   1.20212   1.23182
 Alpha virt. eigenvalues --    1.23477   1.23691   1.25160   1.26009   1.27114
 Alpha virt. eigenvalues --    1.29193   1.30300   1.30518   1.31959   1.32880
 Alpha virt. eigenvalues --    1.34001   1.41842   1.43773   1.46220   1.47746
 Alpha virt. eigenvalues --    1.49766   1.54174   1.66750   1.67819   1.69714
 Alpha virt. eigenvalues --   18.50952
          Condensed to atoms (all electrons):
              1          2          3          4          5          6
     1  P    3.824142   0.232839  -0.036446   0.003972   0.003067  -0.000072
     2  C    0.232839   5.772814   0.430114  -0.024979  -0.073998   0.004875
     3  C   -0.036446   0.430114   5.206723   0.337039   0.517778  -0.021394
     4  H    0.003972  -0.024979   0.337039   0.448131  -0.029610  -0.001215
     5  C    0.003067  -0.073998   0.517778  -0.029610   5.083803   0.336753
     6  H   -0.000072   0.004875  -0.021394  -0.001215   0.336753   0.470281
     7  C   -0.000253  -0.052497  -0.061735   0.005233   0.518614  -0.031017
     8  H    0.000006   0.000530   0.004367  -0.000069  -0.027408  -0.001496
     9  C    0.004953  -0.065985  -0.037713  -0.000175  -0.066064   0.004210
    10  H   -0.000193   0.004236  -0.000154   0.000001   0.004918  -0.000068
    11  C   -0.086595   0.351737  -0.063582   0.005030  -0.036639   0.000632
    12  H   -0.008155  -0.034429   0.004793  -0.000076  -0.000083   0.000002
    13  C    0.192685  -0.111140   0.003311   0.000546  -0.001170  -0.000008
    14  C   -0.071562  -0.004808  -0.001622  -0.000073   0.000687   0.000008
    15  H   -0.007195   0.001000  -0.000977   0.000029  -0.000004   0.000000
    16  C    0.004434  -0.001299  -0.000448  -0.000002  -0.000009   0.000000
    17  H   -0.000178  -0.000006   0.000002   0.000000   0.000000   0.000000
    18  C    0.000030   0.000001   0.000000   0.000000   0.000002   0.000000
    19  H    0.000008   0.000000   0.000000   0.000000   0.000000   0.000000
    20  C    0.003783  -0.000967   0.000012   0.000002  -0.000002   0.000000
    21  H   -0.000052   0.000001   0.000000   0.000000   0.000000   0.000000
    22  C   -0.029748   0.003256   0.000568   0.000026  -0.000005   0.000000
    23  H    0.002304   0.000286   0.000018   0.000000   0.000000   0.000000
    24  C    0.183673  -0.092038   0.000735   0.000300  -0.000535  -0.000002
    25  C   -0.042067  -0.002189   0.002110   0.000017   0.000199   0.000003
    26  H   -0.002078   0.000992  -0.000169   0.000017   0.000054   0.000000
    27  C    0.004833  -0.002475   0.000010   0.000001  -0.000007   0.000000
    28  H   -0.000106  -0.000013   0.000000   0.000000   0.000000   0.000000
    29  C    0.000301   0.000124   0.000002   0.000000   0.000000   0.000000
    30  H    0.000011   0.000000   0.000000   0.000000   0.000000   0.000000
    31  C    0.004016  -0.000076   0.000009   0.000000   0.000000   0.000000
    32  H   -0.000119  -0.000006   0.000000   0.000000   0.000000   0.000000
    33  C   -0.061719   0.009884  -0.000326  -0.000008   0.000040   0.000000
    34  H   -0.005766   0.000341  -0.000003   0.000000   0.000000   0.000000
              7          8          9         10         11         12
     1  P   -0.000253   0.000006   0.004953  -0.000193  -0.086595  -0.008155
     2  C   -0.052497   0.000530  -0.065985   0.004236   0.351737  -0.034429
     3  C   -0.061735   0.004367  -0.037713  -0.000154  -0.063582   0.004793
     4  H    0.005233  -0.000069  -0.000175   0.000001   0.005030  -0.000076
     5  C    0.518614  -0.027408  -0.066064   0.004918  -0.036639  -0.000083
     6  H   -0.031017  -0.001496   0.004210  -0.000068   0.000632   0.000002
     7  C    5.099741   0.334112   0.519427  -0.032170  -0.068426   0.005808
     8  H    0.334112   0.473604  -0.026044  -0.001449   0.004625  -0.000070
     9  C    0.519427  -0.026044   5.102875   0.338443   0.515531  -0.028485
    10  H   -0.032170  -0.001449   0.338443   0.465522  -0.018211  -0.000739
    11  C   -0.068426   0.004625   0.515531  -0.018211   5.302621   0.332098
    12  H    0.005808  -0.000070  -0.028485  -0.000739   0.332098   0.430504
    13  C    0.000072   0.000000   0.000679  -0.000007   0.018897  -0.001320
    14  C    0.000190  -0.000001  -0.001943   0.000048  -0.011563   0.000843
    15  H   -0.000142   0.000002   0.000178   0.000014   0.007865  -0.001837
    16  C    0.000011   0.000000  -0.000086   0.000003  -0.001056  -0.000115
    17  H    0.000000   0.000000   0.000002   0.000000   0.000027   0.000002
    18  C    0.000001   0.000000  -0.000001   0.000000  -0.000085   0.000002
    19  H    0.000000   0.000000   0.000000   0.000000   0.000000   0.000000
    20  C    0.000000   0.000000   0.000002   0.000000   0.000141   0.000003
    21  H    0.000000   0.000000   0.000000   0.000000   0.000000   0.000000
    22  C   -0.000004   0.000000   0.000004   0.000000   0.000885   0.000037
    23  H    0.000000   0.000000   0.000000   0.000000  -0.000015   0.000001
    24  C    0.000027   0.000000  -0.002081   0.000020  -0.001956  -0.000662
    25  C   -0.000073   0.000001  -0.001358   0.000018  -0.013874   0.002579
    26  H    0.000010   0.000000   0.000095   0.000001   0.001032   0.000005
    27  C    0.000009   0.000000  -0.000126   0.000001  -0.000652   0.000280
    28  H    0.000000   0.000000   0.000001   0.000000  -0.000019   0.000009
    29  C    0.000000   0.000000   0.000008   0.000000  -0.000162   0.000018
    30  H    0.000000   0.000000   0.000000   0.000000   0.000000   0.000000
    31  C    0.000000   0.000000  -0.000017   0.000000  -0.000005   0.000091
    32  H    0.000000   0.000000   0.000000   0.000000   0.000008  -0.000001
    33  C   -0.000002   0.000000  -0.000058   0.000004  -0.000425  -0.000034
    34  H    0.000000   0.000000  -0.000002   0.000000  -0.000021   0.000026
             13         14         15         16         17         18
     1  P    0.192685  -0.071562  -0.007195   0.004434  -0.000178   0.000030
     2  C   -0.111140  -0.004808   0.001000  -0.001299  -0.000006   0.000001
     3  C    0.003311  -0.001622  -0.000977  -0.000448   0.000002   0.000000
     4  H    0.000546  -0.000073   0.000029  -0.000002   0.000000   0.000000
     5  C   -0.001170   0.000687  -0.000004  -0.000009   0.000000   0.000002
     6  H   -0.000008   0.000008   0.000000   0.000000   0.000000   0.000000
     7  C    0.000072   0.000190  -0.000142   0.000011   0.000000   0.000001
     8  H    0.000000  -0.000001   0.000002   0.000000   0.000000   0.000000
     9  C    0.000679  -0.001943   0.000178  -0.000086   0.000002  -0.000001
    10  H   -0.000007   0.000048   0.000014   0.000003   0.000000   0.000000
    11  C    0.018897  -0.011563   0.007865  -0.001056   0.000027  -0.000085
    12  H   -0.001320   0.000843  -0.001837  -0.000115   0.000002   0.000002
    13  C    5.752454   0.385328  -0.032745  -0.072954   0.004445  -0.050897
    14  C    0.385328   5.182169   0.340811   0.516372  -0.016030  -0.064208
    15  H   -0.032745   0.340811   0.444231  -0.027327  -0.001417   0.005703
    16  C   -0.072954   0.516372  -0.027327   5.114509   0.334322   0.523372
    17  H    0.004445  -0.016030  -0.001417   0.334322   0.472905  -0.033694
    18  C   -0.050897  -0.064208   0.005703   0.523372  -0.033694   5.094238
    19  H    0.000624   0.004347  -0.000069  -0.026300  -0.001392   0.334389
    20  C   -0.077638  -0.034732  -0.000063  -0.065807   0.004430   0.520097
    21  H    0.004926   0.000236   0.000001   0.004379  -0.000068  -0.031076
    22  C    0.437405  -0.042857   0.005101  -0.044004   0.000304  -0.067292
    23  H   -0.028309   0.004742  -0.000075  -0.000172   0.000002   0.005665
    24  C   -0.127994   0.010298  -0.000099  -0.000534  -0.000003   0.000026
    25  C    0.005764   0.001213   0.000092  -0.000008   0.000000  -0.000009
    26  H    0.000388   0.000012   0.000000   0.000001   0.000000   0.000000
    27  C   -0.001089   0.000129   0.000004   0.000000   0.000000   0.000001
    28  H    0.000000   0.000000   0.000000   0.000000   0.000000   0.000000
    29  C    0.000004  -0.000022   0.000000   0.000002   0.000000   0.000001
    30  H    0.000000   0.000000   0.000000   0.000000   0.000000   0.000000
    31  C   -0.001577  -0.000510  -0.000012  -0.000023   0.000000   0.000023
    32  H   -0.000009   0.000005   0.000000   0.000000   0.000000   0.000000
    33  C   -0.009683  -0.001797  -0.000039   0.000424   0.000009   0.000219
    34  H    0.001476   0.000227   0.000020  -0.000088   0.000001  -0.000168
             19         20         21         22         23         24
     1  P    0.000008   0.003783  -0.000052  -0.029748   0.002304   0.183673
     2  C    0.000000  -0.000967   0.000001   0.003256   0.000286  -0.092038
     3  C    0.000000   0.000012   0.000000   0.000568   0.000018   0.000735
     4  H    0.000000   0.000002   0.000000   0.000026   0.000000   0.000300
     5  C    0.000000  -0.000002   0.000000  -0.000005   0.000000  -0.000535
     6  H    0.000000   0.000000   0.000000   0.000000   0.000000  -0.000002
     7  C    0.000000   0.000000   0.000000  -0.000004   0.000000   0.000027
     8  H    0.000000   0.000000   0.000000   0.000000   0.000000   0.000000
     9  C    0.000000   0.000002   0.000000   0.000004   0.000000  -0.002081
    10  H    0.000000   0.000000   0.000000   0.000000   0.000000   0.000020
    11  C    0.000000   0.000141   0.000000   0.000885  -0.000015  -0.001956
    12  H    0.000000   0.000003   0.000000   0.000037   0.000001  -0.000662
    13  C    0.000624  -0.077638   0.004926   0.437405  -0.028309  -0.127994
    14  C    0.004347  -0.034732   0.000236  -0.042857   0.004742   0.010298
    15  H   -0.000069  -0.000063   0.000001   0.005101  -0.000075  -0.000099
    16  C   -0.026300  -0.065807   0.004379  -0.044004  -0.000172  -0.000534
    17  H   -0.001392   0.004430  -0.000068   0.000304   0.000002  -0.000003
    18  C    0.334389   0.520097  -0.031076  -0.067292   0.005665   0.000026
    19  H    0.474150  -0.026745  -0.001541   0.004398  -0.000073   0.000000
    20  C   -0.026745   5.092933   0.339543   0.514328  -0.029093  -0.000124
    21  H   -0.001541   0.339543   0.467089  -0.021048  -0.000975  -0.000027
    22  C    0.004398   0.514328  -0.021048   5.207929   0.333024   0.004000
    23  H   -0.000073  -0.029093  -0.000975   0.333024   0.452328  -0.000500
    24  C    0.000000  -0.000124  -0.000027   0.004000  -0.000500   5.716514
    25  C    0.000000   0.000031   0.000000   0.000529   0.000034   0.431456
    26  H    0.000000   0.000000   0.000000  -0.000007   0.000000  -0.031650
    27  C    0.000000  -0.000001   0.000000   0.000032   0.000002  -0.073462
    28  H    0.000000   0.000000   0.000000   0.000000   0.000000   0.004717
    29  C    0.000000   0.000000   0.000000  -0.000048  -0.000001  -0.055334
    30  H    0.000000   0.000000   0.000000   0.000000   0.000000   0.000822
    31  C    0.000000  -0.000096   0.000003  -0.000784  -0.000040  -0.067968
    32  H    0.000000   0.000002   0.000000   0.000016   0.000000   0.004098
    33  C   -0.000002  -0.001356   0.000065  -0.009282   0.000122   0.399997
    34  H    0.000002   0.000425   0.000003   0.003914  -0.001653  -0.030839
             25         26         27         28         29         30
     1  P   -0.042067  -0.002078   0.004833  -0.000106   0.000301   0.000011
     2  C   -0.002189   0.000992  -0.002475  -0.000013   0.000124   0.000000
     3  C    0.002110  -0.000169   0.000010   0.000000   0.000002   0.000000
     4  H    0.000017   0.000017   0.000001   0.000000   0.000000   0.000000
     5  C    0.000199   0.000054  -0.000007   0.000000   0.000000   0.000000
     6  H    0.000003   0.000000   0.000000   0.000000   0.000000   0.000000
     7  C   -0.000073   0.000010   0.000009   0.000000   0.000000   0.000000
     8  H    0.000001   0.000000   0.000000   0.000000   0.000000   0.000000
     9  C   -0.001358   0.000095  -0.000126   0.000001   0.000008   0.000000
    10  H    0.000018   0.000001   0.000001   0.000000   0.000000   0.000000
    11  C   -0.013874   0.001032  -0.000652  -0.000019  -0.000162   0.000000
    12  H    0.002579   0.000005   0.000280   0.000009   0.000018   0.000000
    13  C    0.005764   0.000388  -0.001089   0.000000   0.000004   0.000000
    14  C    0.001213   0.000012   0.000129   0.000000  -0.000022   0.000000
    15  H    0.000092   0.000000   0.000004   0.000000   0.000000   0.000000
    16  C   -0.000008   0.000001   0.000000   0.000000   0.000002   0.000000
    17  H    0.000000   0.000000   0.000000   0.000000   0.000000   0.000000
    18  C   -0.000009   0.000000   0.000001   0.000000   0.000001   0.000000
    19  H    0.000000   0.000000   0.000000   0.000000   0.000000   0.000000
    20  C    0.000031   0.000000  -0.000001   0.000000   0.000000   0.000000
    21  H    0.000000   0.000000   0.000000   0.000000   0.000000   0.000000
    22  C    0.000529  -0.000007   0.000032   0.000000  -0.000048   0.000000
    23  H    0.000034   0.000000   0.000002   0.000000  -0.000001   0.000000
    24  C    0.431456  -0.031650  -0.073462   0.004717  -0.055334   0.000822
    25  C    5.208717   0.331090   0.534039  -0.021809  -0.066854   0.004351
    26  H    0.331090   0.450874  -0.025715  -0.001283   0.005783  -0.000074
    27  C    0.534039  -0.025715   5.072411   0.339091   0.515848  -0.026001
    28  H   -0.021809  -0.001283   0.339091   0.470236  -0.030795  -0.001439
    29  C   -0.066854   0.005783   0.515848  -0.030795   5.109142   0.334138
    30  H    0.004351  -0.000074  -0.026001  -0.001439   0.334138   0.475178
    31  C   -0.045572  -0.000198  -0.065437   0.004718   0.524002  -0.026369
    32  H    0.000248   0.000002   0.004508  -0.000067  -0.032184  -0.001459
    33  C   -0.048575   0.004898  -0.037047   0.000142  -0.065088   0.004197
    34  H    0.005294  -0.000075  -0.000187   0.000001   0.005816  -0.000070
             31         32         33         34
     1  P    0.004016  -0.000119  -0.061719  -0.005766
     2  C   -0.000076  -0.000006   0.009884   0.000341
     3  C    0.000009   0.000000  -0.000326  -0.000003
     4  H    0.000000   0.000000  -0.000008   0.000000
     5  C    0.000000   0.000000   0.000040   0.000000
     6  H    0.000000   0.000000   0.000000   0.000000
     7  C    0.000000   0.000000  -0.000002   0.000000
     8  H    0.000000   0.000000   0.000000   0.000000
     9  C   -0.000017   0.000000  -0.000058  -0.000002
    10  H    0.000000   0.000000   0.000004   0.000000
    11  C   -0.000005   0.000008  -0.000425  -0.000021
    12  H    0.000091  -0.000001  -0.000034   0.000026
    13  C   -0.001577  -0.000009  -0.009683   0.001476
    14  C   -0.000510   0.000005  -0.001797   0.000227
    15  H   -0.000012   0.000000  -0.000039   0.000020
    16  C   -0.000023   0.000000   0.000424  -0.000088
    17  H    0.000000   0.000000   0.000009   0.000001
    18  C    0.000023   0.000000   0.000219  -0.000168
    19  H    0.000000   0.000000  -0.000002   0.000002
    20  C   -0.000096   0.000002  -0.001356   0.000425
    21  H    0.000003   0.000000   0.000065   0.000003
    22  C   -0.000784   0.000016  -0.009282   0.003914
    23  H   -0.000040   0.000000   0.000122  -0.001653
    24  C   -0.067968   0.004098   0.399997  -0.030839
    25  C   -0.045572   0.000248  -0.048575   0.005294
    26  H   -0.000198   0.000002   0.004898  -0.000075
    27  C   -0.065437   0.004508  -0.037047  -0.000187
    28  H    0.004718  -0.000067   0.000142   0.000001
    29  C    0.524002  -0.032184  -0.065088   0.005816
    30  H   -0.026369  -0.001459   0.004197  -0.000070
    31  C    5.097687   0.336216   0.519665  -0.028262
    32  H    0.336216   0.473078  -0.018396  -0.001319
    33  C    0.519665  -0.018396   5.211545   0.339621
    34  H   -0.028262  -0.001319   0.339621   0.448828
 Mulliken atomic charges:
              1
     1  P    0.887248
     2  C   -0.346123
     3  C   -0.283025
     4  H    0.255863
     5  C   -0.230379
     6  H    0.238506
     7  C   -0.236936
     8  H    0.239290
     9  C   -0.256274
    10  H    0.239763
    11  C   -0.237846
    12  H    0.298907
    13  C   -0.292462
    14  C   -0.195937
    15  H    0.266949
    16  C   -0.257595
    17  H    0.236338
    18  C   -0.236339
    19  H    0.238204
    20  C   -0.239110
    21  H    0.238541
    22  C   -0.300680
    23  H    0.262378
    24  C   -0.270873
    25  C   -0.285397
    26  H    0.265997
    27  C   -0.238997
    28  H    0.236617
    29  C   -0.244700
    30  H    0.236715
    31  C   -0.249487
    32  H    0.235378
    33  C   -0.236995
    34  H    0.262461
 Sum of Mulliken atomic charges =   0.00000
 Mulliken charges with hydrogens summed into heavy atoms:
              1
     1  P    0.887248
     2  C   -0.346123
     3  C   -0.027161
     5  C    0.008127
     7  C    0.002354
     9  C   -0.016511
    11  C    0.061061
    13  C   -0.292462
    14  C    0.071012
    16  C   -0.021258
    18  C    0.001865
    20  C   -0.000569
    22  C   -0.038302
    24  C   -0.270873
    25  C   -0.019400
    27  C   -0.002381
    29  C   -0.007985
    31  C   -0.014109
    33  C    0.025466
 Sum of Mulliken charges with hydrogens summed into heavy atoms =   0.00000
 Electronic spatial extent (au):  <R**2>=           8894.9850
 Charge=              0.0000 electrons
 Dipole moment (field-independent basis, Debye):
    X=             -1.0148    Y=             -0.2655    Z=             -1.4026  Tot=              1.7515
 Quadrupole moment (field-independent basis, Debye-Ang):
   XX=           -111.3421   YY=           -102.8168   ZZ=           -109.5290
   XY=              2.6716   XZ=              1.1441   YZ=             -0.2449
 Traceless Quadrupole moment (field-independent basis, Debye-Ang):
   XX=             -3.4461   YY=              5.0792   ZZ=             -1.6331
   XY=              2.6716   XZ=              1.1441   YZ=             -0.2449
 Octapole moment (field-independent basis, Debye-Ang**2):
  XXX=            377.8890  YYY=             58.8360  ZZZ=            815.5760  XYY=             89.6197
  XXY=             -6.2524  XXZ=            239.2191  XZZ=            137.1892  YZZ=              2.5217
  YYZ=            250.6349  XYZ=              5.8438
 Hexadecapole moment (field-independent basis, Debye-Ang**3):
 XXXX=          -3812.9427 YYYY=          -3342.1766 ZZZZ=          -5048.4507 XXXY=            -55.9704
 XXXZ=           -402.2612 YYYX=            -18.5251 YYYZ=            -62.2862 ZZZX=           -575.1446
 ZZZY=              6.5870 XXYY=          -1028.0582 XXZZ=          -1274.9261 YYZZ=          -1365.0727
 XXYZ=            -24.5930 YYXZ=            -69.4504 ZZXY=             11.4147
 N-N= 1.195292726482D+03 E-N=-4.011710107027D+03  KE= 6.930904826211D+02
   1 Symmetry operations used in ECPInt.
 ECPInt:  NShTT=    7750 NPrTT=   57167 LenC2=    7341 LenP2D=   32243.
 LDataN:  DoStor=T MaxTD1= 4 Len=   56
 Calling FoFJK, ICntrl=      2127 FMM=F ISym2X=0 I1Cent= 0 IOpClX= 0 NMat=1 NMatS=1 NMatT=0.
 -------------------------------------------------------------------
 Center     Atomic                   Forces (Hartrees/Bohr)
 Number     Number              X              Y              Z
 -------------------------------------------------------------------
      1       15           0.005138384    0.003214401    0.012777567
      2        6          -0.000282525    0.002503090   -0.005271819
      3        6           0.000568980    0.000973513    0.000070412
      4        1          -0.000188468   -0.000256486   -0.000531417
      5        6          -0.000565287   -0.000475802    0.000034976
      6        1           0.000079112   -0.000063554    0.000252684
      7        6           0.000105012    0.000212933    0.000033834
      8        1          -0.000216546   -0.000299402    0.000062335
      9        6           0.000062460   -0.000401822   -0.000361897
     10        1          -0.000194095   -0.000186649   -0.000369683
     11        6          -0.001560071   -0.002896121    0.000231523
     12        1           0.000133046    0.000283910    0.000309011
     13        6          -0.000556606   -0.002995722   -0.004320616
     14        6          -0.001711148    0.003056248   -0.000448220
     15        1           0.000284652   -0.000148329   -0.000160710
     16        6          -0.000208916   -0.000391173    0.000245406
     17        1          -0.000440492    0.000011244   -0.000171834
     18        6           0.000641873    0.000269588    0.000028451
     19        1          -0.000260266    0.000313885    0.000001084
     20        6          -0.001014133   -0.000396977   -0.000940754
     21        1          -0.000012359    0.000152830    0.000194416
     22        6           0.001002219   -0.000619206    0.002932814
     23        1          -0.000162784   -0.000942866   -0.001087607
     24        6          -0.003842876   -0.000726221   -0.001843840
     25        6           0.000687617   -0.000186637    0.000268802
     26        1           0.000623287    0.000394422    0.000194141
     27        6           0.000362865    0.000404336   -0.000509522
     28        1           0.000215981    0.000084359   -0.000000167
     29        6          -0.000377429   -0.000448220   -0.000695067
     30        1           0.000429374    0.000024715    0.000089860
     31        6          -0.000670592   -0.000755799    0.000431457
     32        1           0.000374032    0.000321942    0.000156836
     33        6           0.001241673    0.000297563   -0.001927663
     34        1           0.000314024   -0.000327992    0.000325209
 -------------------------------------------------------------------
 Cartesian Forces:  Max     0.012777567 RMS     0.001806071

 GradGradGradGradGradGradGradGradGradGradGradGradGradGradGradGradGradGrad
 Berny optimization.
 Internal  Forces:  Max     0.005478379 RMS     0.001025419
 Search for a local minimum.
 Step number   1 out of a maximum of  187
 All quantities printed in internal units (Hartrees-Bohrs-Radians)
 Mixed Optimization -- RFO/linear search
 Second derivative matrix not updated -- first step.
 ITU=  0
     Eigenvalues ---    0.00230   0.00230   0.00272   0.01452   0.01468
     Eigenvalues ---    0.01469   0.01999   0.02004   0.02007   0.02020
     Eigenvalues ---    0.02022   0.02026   0.02028   0.02029   0.02031
     Eigenvalues ---    0.02033   0.02035   0.02036   0.02037   0.02039
     Eigenvalues ---    0.02040   0.02043   0.02044   0.02044   0.02046
     Eigenvalues ---    0.02048   0.02051   0.02051   0.02052   0.02063
     Eigenvalues ---    0.06869   0.15567   0.15960   0.15995   0.15996
     Eigenvalues ---    0.15997   0.15998   0.15999   0.15999   0.15999
     Eigenvalues ---    0.16000   0.16000   0.16000   0.16000   0.16000
     Eigenvalues ---    0.16000   0.16000   0.16000   0.20928   0.21007
     Eigenvalues ---    0.21450   0.22000   0.22000   0.22000   0.22000
     Eigenvalues ---    0.22000   0.22000   0.23465   0.23477   0.23480
     Eigenvalues ---    0.24949   0.24998   0.24998   0.34935   0.35035
     Eigenvalues ---    0.35115   0.35144   0.35201   0.35357   0.35366
     Eigenvalues ---    0.35384   0.35395   0.35400   0.35403   0.35415
     Eigenvalues ---    0.35415   0.35423   0.35426   0.40833   0.40889
     Eigenvalues ---    0.40963   0.40979   0.41009   0.41040   0.44480
     Eigenvalues ---    0.44506   0.44644   0.44780   0.44859   0.44904
     Eigenvalues ---    0.44989   0.45016   0.45064   0.45197   0.45211
     Eigenvalues ---    0.45433
 RFO step:  Lambda=-2.20167934D-03 EMin= 2.30000000D-03
 Linear search not attempted -- first point.
 Iteration  1 RMS(Cart)=  0.14335813 RMS(Int)=  0.00655050
 Iteration  2 RMS(Cart)=  0.01473888 RMS(Int)=  0.00014746
 Iteration  3 RMS(Cart)=  0.00012692 RMS(Int)=  0.00013998
 Iteration  4 RMS(Cart)=  0.00000001 RMS(Int)=  0.00013998
 Variable       Old X    -DE/DX   Delta X   Delta X   Delta X     New X
                                 (Linear)    (Quad)   (Total)
    R1        3.52895   0.00280   0.00000   0.01294   0.01294   3.54190
    R2        3.54553   0.00106   0.00000   0.00500   0.00500   3.55053
    R3        3.54299   0.00222   0.00000   0.01047   0.01047   3.55346
    R4        2.65606  -0.00008   0.00000  -0.00020  -0.00020   2.65586
    R5        2.65956   0.00145   0.00000   0.00328   0.00329   2.66284
    R6        2.05488  -0.00061   0.00000  -0.00173  -0.00173   2.05315
    R7        2.65254   0.00071   0.00000   0.00152   0.00152   2.65406
    R8        2.05031   0.00019   0.00000   0.00052   0.00052   2.05083
    R9        2.65046  -0.00006   0.00000  -0.00016  -0.00017   2.65029
   R10        2.05025   0.00035   0.00000   0.00099   0.00099   2.05124
   R11        2.65463   0.00004   0.00000   0.00013   0.00012   2.65475
   R12        2.04989   0.00044   0.00000   0.00123   0.00123   2.05112
   R13        2.64921   0.00074   0.00000   0.00169   0.00169   2.65090
   R14        2.05441  -0.00004   0.00000  -0.00011  -0.00011   2.05431
   R15        2.65387   0.00166   0.00000   0.00373   0.00376   2.65763
   R16        2.66236  -0.00088   0.00000  -0.00199  -0.00196   2.66040
   R17        2.05099   0.00009   0.00000   0.00027   0.00027   2.05126
   R18        2.65483   0.00004   0.00000   0.00015   0.00015   2.65497
   R19        2.04994   0.00046   0.00000   0.00130   0.00130   2.05124
   R20        2.65013   0.00009   0.00000   0.00022   0.00018   2.65032
   R21        2.05007   0.00039   0.00000   0.00110   0.00110   2.05117
   R22        2.65387  -0.00032   0.00000  -0.00075  -0.00078   2.65309
   R23        2.05006   0.00019   0.00000   0.00052   0.00052   2.05058
   R24        2.64956   0.00079   0.00000   0.00168   0.00169   2.65125
   R25        2.05781  -0.00086   0.00000  -0.00244  -0.00244   2.05538
   R26        2.66179   0.00109   0.00000   0.00263   0.00263   2.66442
   R27        2.65238   0.00111   0.00000   0.00257   0.00257   2.65496
   R28        2.05619  -0.00036   0.00000  -0.00102  -0.00102   2.05517
   R29        2.64534   0.00087   0.00000   0.00196   0.00196   2.64730
   R30        2.05086   0.00003   0.00000   0.00008   0.00008   2.05094
   R31        2.65653  -0.00062   0.00000  -0.00149  -0.00149   2.65504
   R32        2.05039   0.00024   0.00000   0.00068   0.00068   2.05107
   R33        2.64896  -0.00027   0.00000  -0.00078  -0.00078   2.64818
   R34        2.05056   0.00025   0.00000   0.00071   0.00071   2.05127
   R35        2.65696  -0.00025   0.00000  -0.00062  -0.00062   2.65634
   R36        2.05349  -0.00039   0.00000  -0.00111  -0.00111   2.05238
    A1        1.80709  -0.00213   0.00000  -0.02792  -0.02858   1.77851
    A2        1.77764  -0.00324   0.00000  -0.03523  -0.03582   1.74182
    A3        1.78192  -0.00032   0.00000  -0.01708  -0.01793   1.76398
    A4        2.06913  -0.00306   0.00000  -0.01201  -0.01206   2.05708
    A5        2.12736   0.00484   0.00000   0.01933   0.01929   2.14665
    A6        2.08663  -0.00178   0.00000  -0.00715  -0.00716   2.07946
    A7        2.08539  -0.00040   0.00000  -0.00140  -0.00140   2.08399
    A8        2.09917   0.00104   0.00000   0.00432   0.00433   2.10350
    A9        2.09862  -0.00064   0.00000  -0.00293  -0.00293   2.09569
   A10        2.09414  -0.00022   0.00000  -0.00107  -0.00108   2.09306
   A11        2.09432   0.00014   0.00000   0.00025   0.00025   2.09456
   A12        2.09473   0.00008   0.00000   0.00081   0.00081   2.09554
   A13        2.09661  -0.00002   0.00000  -0.00021  -0.00020   2.09640
   A14        2.09297  -0.00021   0.00000  -0.00110  -0.00110   2.09187
   A15        2.09360   0.00022   0.00000   0.00130   0.00130   2.09490
   A16        2.09576   0.00001   0.00000  -0.00018  -0.00017   2.09558
   A17        2.09613  -0.00027   0.00000  -0.00120  -0.00120   2.09493
   A18        2.09130   0.00026   0.00000   0.00137   0.00137   2.09267
   A19        2.09713   0.00108   0.00000   0.00486   0.00487   2.10200
   A20        2.09425  -0.00099   0.00000  -0.00520  -0.00520   2.08905
   A21        2.09174  -0.00009   0.00000   0.00032   0.00032   2.09206
   A22        2.13735   0.00548   0.00000   0.02188   0.02155   2.15890
   A23        2.06587  -0.00468   0.00000  -0.01838  -0.01868   2.04719
   A24        2.07991  -0.00080   0.00000  -0.00310  -0.00326   2.07665
   A25        2.10068  -0.00057   0.00000  -0.00297  -0.00301   2.09768
   A26        2.09817   0.00069   0.00000   0.00318   0.00325   2.10142
   A27        2.08427  -0.00012   0.00000  -0.00024  -0.00028   2.08400
   A28        2.08791   0.00025   0.00000   0.00122   0.00121   2.08912
   A29        2.10041  -0.00035   0.00000  -0.00152  -0.00152   2.09889
   A30        2.09487   0.00010   0.00000   0.00031   0.00031   2.09517
   A31        2.09716   0.00012   0.00000   0.00064   0.00065   2.09781
   A32        2.08959  -0.00022   0.00000  -0.00116  -0.00119   2.08840
   A33        2.09642   0.00010   0.00000   0.00048   0.00049   2.09691
   A34        2.09864  -0.00029   0.00000  -0.00112  -0.00113   2.09751
   A35        2.09223   0.00061   0.00000   0.00239   0.00239   2.09462
   A36        2.09230  -0.00032   0.00000  -0.00131  -0.00132   2.09097
   A37        2.10594   0.00006   0.00000   0.00003   0.00008   2.10602
   A38        2.09336  -0.00096   0.00000  -0.00564  -0.00570   2.08766
   A39        2.08363   0.00091   0.00000   0.00590   0.00583   2.08946
   A40        2.05900   0.00030   0.00000   0.00056   0.00046   2.05946
   A41        2.13908   0.00138   0.00000   0.00483   0.00473   2.14381
   A42        2.08342  -0.00170   0.00000  -0.00673  -0.00680   2.07662
   A43        2.09050  -0.00013   0.00000  -0.00050  -0.00052   2.08997
   A44        2.10239   0.00057   0.00000   0.00304   0.00303   2.10542
   A45        2.09017  -0.00043   0.00000  -0.00237  -0.00239   2.08778
   A46        2.09047   0.00001   0.00000   0.00043   0.00041   2.09088
   A47        2.09512   0.00031   0.00000   0.00126   0.00126   2.09638
   A48        2.09759  -0.00032   0.00000  -0.00166  -0.00168   2.09591
   A49        2.09633   0.00018   0.00000   0.00114   0.00106   2.09739
   A50        2.08914  -0.00046   0.00000  -0.00264  -0.00270   2.08645
   A51        2.09758   0.00029   0.00000   0.00184   0.00176   2.09934
   A52        2.09567  -0.00028   0.00000  -0.00091  -0.00094   2.09473
   A53        2.09879   0.00053   0.00000   0.00183   0.00182   2.10062
   A54        2.08861  -0.00025   0.00000  -0.00074  -0.00077   2.08784
   A55        2.09738   0.00076   0.00000   0.00347   0.00348   2.10086
   A56        2.10110  -0.00059   0.00000  -0.00301  -0.00302   2.09807
   A57        2.08451  -0.00016   0.00000  -0.00034  -0.00035   2.08416
    D1       -1.81968  -0.00076   0.00000   0.04314   0.04343  -1.77624
    D2        1.30915  -0.00051   0.00000   0.05845   0.05881   1.36797
    D3        2.61852   0.00120   0.00000   0.08024   0.07988   2.69840
    D4       -0.53583   0.00144   0.00000   0.09556   0.09526  -0.44057
    D5       -0.20303   0.00205   0.00000  -0.03908  -0.03918  -0.24221
    D6        2.94950   0.00135   0.00000  -0.08198  -0.08217   2.86733
    D7        1.63871  -0.00212   0.00000  -0.09009  -0.08989   1.54882
    D8       -1.49194  -0.00283   0.00000  -0.13299  -0.13288  -1.62483
    D9       -0.92984  -0.00271   0.00000  -0.21878  -0.21861  -1.14845
   D10        2.27463  -0.00222   0.00000  -0.19351  -0.19326   2.08137
   D11       -2.79445   0.00057   0.00000  -0.17416  -0.17441  -2.96886
   D12        0.41002   0.00106   0.00000  -0.14890  -0.14907   0.26096
   D13       -0.02388   0.00020   0.00000   0.00997   0.00984  -0.01404
   D14        3.12236   0.00024   0.00000   0.01166   0.01151   3.13388
   D15        3.13016  -0.00009   0.00000  -0.00518  -0.00513   3.12504
   D16       -0.00677  -0.00005   0.00000  -0.00349  -0.00346  -0.01023
   D17       -3.12755  -0.00022   0.00000  -0.01306  -0.01317  -3.14071
   D18        0.02580  -0.00019   0.00000  -0.01154  -0.01162   0.01417
   D19        0.00116   0.00002   0.00000   0.00238   0.00237   0.00353
   D20       -3.12868   0.00005   0.00000   0.00390   0.00391  -3.12477
   D21       -3.13808  -0.00006   0.00000  -0.00229  -0.00229  -3.14037
   D22        0.00662   0.00004   0.00000   0.00213   0.00211   0.00873
   D23        0.00820  -0.00001   0.00000  -0.00059  -0.00061   0.00759
   D24       -3.13028   0.00009   0.00000   0.00383   0.00378  -3.12650
   D25        3.13694  -0.00004   0.00000  -0.00181  -0.00180   3.13513
   D26       -0.00082   0.00000   0.00000   0.00040   0.00041  -0.00041
   D27       -0.00155   0.00006   0.00000   0.00261   0.00260   0.00105
   D28       -3.13931   0.00010   0.00000   0.00483   0.00482  -3.13449
   D29        3.13702   0.00001   0.00000  -0.00037  -0.00038   3.13663
   D30       -0.00478  -0.00003   0.00000  -0.00148  -0.00147  -0.00625
   D31       -0.00075   0.00005   0.00000   0.00184   0.00183   0.00108
   D32        3.14064   0.00001   0.00000   0.00073   0.00074   3.14139
   D33        0.00461   0.00002   0.00000   0.00010   0.00007   0.00468
   D34        3.13447  -0.00002   0.00000  -0.00146  -0.00151   3.13296
   D35       -3.13719  -0.00001   0.00000  -0.00101  -0.00101  -3.13820
   D36       -0.00733  -0.00005   0.00000  -0.00257  -0.00259  -0.00993
   D37        0.03210  -0.00057   0.00000  -0.03298  -0.03332  -0.00122
   D38       -3.12147  -0.00063   0.00000  -0.03538  -0.03581   3.12590
   D39       -3.12051   0.00012   0.00000   0.01016   0.01026  -3.11025
   D40        0.00910   0.00007   0.00000   0.00777   0.00777   0.01687
   D41        3.11460   0.00054   0.00000   0.02867   0.02819  -3.14039
   D42       -0.05183   0.00084   0.00000   0.04247   0.04202  -0.00981
   D43       -0.01643  -0.00018   0.00000  -0.01295  -0.01286  -0.02929
   D44        3.10033   0.00012   0.00000   0.00084   0.00097   3.10130
   D45       -3.13786   0.00007   0.00000   0.00202   0.00204  -3.13582
   D46        0.00420   0.00008   0.00000   0.00124   0.00117   0.00536
   D47       -0.00813   0.00002   0.00000  -0.00037  -0.00045  -0.00858
   D48        3.13392   0.00002   0.00000  -0.00116  -0.00132   3.13260
   D49        3.13705   0.00003   0.00000   0.00165   0.00169   3.13874
   D50       -0.01033  -0.00010   0.00000  -0.00519  -0.00514  -0.01547
   D51       -0.00408   0.00003   0.00000   0.00085   0.00081  -0.00326
   D52        3.13172  -0.00010   0.00000  -0.00598  -0.00601   3.12571
   D53       -3.13129   0.00012   0.00000   0.00629   0.00623  -3.12506
   D54        0.00306  -0.00002   0.00000   0.00006   0.00010   0.00316
   D55        0.00451  -0.00001   0.00000  -0.00055  -0.00059   0.00392
   D56        3.13886  -0.00015   0.00000  -0.00677  -0.00673   3.13214
   D57        0.01039   0.00017   0.00000   0.00912   0.00904   0.01943
   D58       -3.10650  -0.00010   0.00000  -0.00444  -0.00464  -3.11114
   D59       -3.13841   0.00004   0.00000   0.00291   0.00293  -3.13549
   D60        0.02788  -0.00024   0.00000  -0.01064  -0.01075   0.01713
   D61        0.08617  -0.00019   0.00000  -0.00365  -0.00371   0.08246
   D62       -3.07258   0.00009   0.00000   0.00841   0.00835  -3.06423
   D63       -3.11624  -0.00055   0.00000  -0.02767  -0.02763   3.13931
   D64        0.00820  -0.00027   0.00000  -0.01561  -0.01558  -0.00737
   D65        3.06368  -0.00015   0.00000  -0.00974  -0.00974   3.05394
   D66       -0.09953   0.00002   0.00000  -0.00297  -0.00298  -0.10252
   D67       -0.01418   0.00028   0.00000   0.01561   0.01558   0.00140
   D68        3.10579   0.00045   0.00000   0.02237   0.02234   3.12813
   D69       -3.13236  -0.00015   0.00000  -0.00566  -0.00565  -3.13800
   D70        0.00564   0.00003   0.00000   0.00309   0.00310   0.00874
   D71       -0.00791   0.00013   0.00000   0.00642   0.00641  -0.00150
   D72        3.13008   0.00031   0.00000   0.01517   0.01516  -3.13794
   D73       -3.13724  -0.00027   0.00000  -0.01252  -0.01252   3.13343
   D74       -0.01349   0.00020   0.00000   0.00945   0.00946  -0.00403
   D75        0.00074  -0.00009   0.00000  -0.00373  -0.00374  -0.00300
   D76        3.12449   0.00038   0.00000   0.01823   0.01824  -3.14046
   D77       -3.11800  -0.00048   0.00000  -0.02246  -0.02248  -3.14048
   D78        0.00750  -0.00019   0.00000  -0.00941  -0.00942  -0.00191
   D79        0.00574  -0.00001   0.00000  -0.00048  -0.00049   0.00525
   D80        3.13125   0.00028   0.00000   0.01257   0.01257  -3.13937
   D81        0.00639  -0.00004   0.00000  -0.00315  -0.00317   0.00322
   D82       -3.11379  -0.00020   0.00000  -0.00981  -0.00984  -3.12363
   D83        3.13196   0.00025   0.00000   0.00984   0.00983  -3.14139
   D84        0.01178   0.00008   0.00000   0.00318   0.00316   0.01494
         Item               Value     Threshold  Converged?
 Maximum Force            0.005478     0.000450     NO 
 RMS     Force            0.001025     0.000300     NO 
 Maximum Displacement     0.541278     0.001800     NO 
 RMS     Displacement     0.149077     0.001200     NO 
 Predicted change in Energy=-1.315263D-03
 GradGradGradGradGradGradGradGradGradGradGradGradGradGradGradGradGradGrad

                          Input orientation:                          
 ---------------------------------------------------------------------
 Center     Atomic      Atomic             Coordinates (Angstroms)
 Number     Number       Type             X           Y           Z
 ---------------------------------------------------------------------
      1         15           0       -0.644518   -0.082424   -1.215688
      2          6           0       -1.727531   -1.550987   -1.643908
      3          6           0       -2.401922   -2.197990   -0.594244
      4          1           0       -2.268993   -1.843220    0.424041
      5          6           0       -3.235327   -3.298450   -0.852987
      6          1           0       -3.752354   -3.790094   -0.035222
      7          6           0       -3.391695   -3.766587   -2.165745
      8          1           0       -4.030663   -4.620696   -2.366898
      9          6           0       -2.713595   -3.132148   -3.219893
     10          1           0       -2.828488   -3.494442   -4.236575
     11          6           0       -1.888018   -2.028195   -2.960010
     12          1           0       -1.358209   -1.544273   -3.776645
     13          6           0       -1.737087    1.362884   -1.713182
     14          6           0       -2.890879    1.231871   -2.506551
     15          1           0       -3.195554    0.255389   -2.869756
     16          6           0       -3.668680    2.358601   -2.821817
     17          1           0       -4.559979    2.243547   -3.430578
     18          6           0       -3.297554    3.627203   -2.352894
     19          1           0       -3.897739    4.497393   -2.599276
     20          6           0       -2.153840    3.763893   -1.550195
     21          1           0       -1.867556    4.739112   -1.170093
     22          6           0       -1.386451    2.635580   -1.224036
     23          1           0       -0.517619    2.742656   -0.578538
     24          6           0        0.558168   -0.139742   -2.660059
     25          6           0        1.424157   -1.248199   -2.756702
     26          1           0        1.328221   -2.070964   -2.051992
     27          6           0        2.404150   -1.303351   -3.756236
     28          1           0        3.061391   -2.164647   -3.820243
     29          6           0        2.540091   -0.244230   -4.669350
     30          1           0        3.304009   -0.282546   -5.439419
     31          6           0        1.686258    0.862995   -4.575438
     32          1           0        1.783816    1.685087   -5.277521
     33          6           0        0.698124    0.915430   -3.577058
     34          1           0        0.033708    1.773199   -3.528735
 ---------------------------------------------------------------------
                    Distance matrix (angstroms):
                    1          2          3          4          5
     1  P    0.000000
     2  C    1.874291   0.000000
     3  C    2.819624   1.405421   0.000000
     4  H    2.903108   2.157544   1.086479   0.000000
     5  C    4.145681   2.439801   1.404466   2.163861   0.000000
     6  H    4.979855   3.420728   2.161242   2.490301   1.085251
     7  C    4.692829   2.819687   2.431001   3.415669   1.402475
     8  H    5.778164   3.905156   3.415349   4.313606   2.161671
     9  C    4.195084   2.440516   2.804251   3.890663   2.429424
    10  H    5.053449   3.422140   3.889643   4.976034   3.413591
    11  C    2.893955   1.409116   2.426886   3.410449   2.805056
    12  H    3.033951   2.164489   3.412383   4.308674   3.892106
    13  C    1.878862   2.914710   3.791286   3.889699   4.971187
    14  C    2.905139   3.137170   3.957265   4.293169   4.834949
    15  H    3.059059   2.630739   3.439022   4.013948   4.086406
    16  C    4.205212   4.521107   5.227741   5.490903   6.005524
    17  H    5.064258   5.060972   5.694668   6.066990   6.253992
    18  C    4.700336   5.457223   6.150437   6.220517   7.086484
    19  H    5.785541   6.496571   7.147432   7.210870   8.016451
    20  C    4.145371   5.332774   6.043131   5.945636   7.178607
    21  H    4.974446   6.309474   6.981442   6.784506   8.159275
    22  C    2.817459   4.221371   4.979077   4.853317   6.226454
    23  H    2.898817   4.586313   5.287799   5.010263   6.629949
    24  C    1.880412   2.872037   4.155251   4.517340   5.256763
    25  C    2.830755   3.356059   4.496355   4.910249   5.434929
    26  H    2.923251   3.126424   4.006885   4.372935   4.875480
[...]
     7  C   -0.000045  -0.051870  -0.066017   0.005454   0.519897  -0.032240
     8  H    0.000008   0.000608   0.004514  -0.000073  -0.026902  -0.001399
     9  C    0.003811  -0.073233  -0.043212  -0.000147  -0.067544   0.004378
    10  H   -0.000159   0.004221   0.000119   0.000002   0.004621  -0.000067
    11  C   -0.074718   0.387593  -0.047310   0.004849  -0.035056   0.000317
    12  H   -0.006887  -0.034801   0.005200  -0.000075  -0.000085   0.000002
    13  C    0.203902  -0.117776   0.006130   0.000625  -0.001182  -0.000017
    14  C   -0.075999  -0.012030  -0.007819  -0.000397  -0.000068   0.000017
    15  H   -0.006949   0.001355   0.000388  -0.000056   0.000314   0.000005
    16  C    0.003947  -0.002019  -0.001054  -0.000012  -0.000078   0.000002
    17  H   -0.000155   0.000006   0.000007   0.000000   0.000001   0.000000
    18  C   -0.000008  -0.000074  -0.000027  -0.000001   0.000004   0.000000
    19  H    0.000008   0.000000   0.000000   0.000000   0.000000   0.000000
    20  C    0.004854  -0.001005   0.000076   0.000005   0.000000   0.000000
    21  H   -0.000094   0.000001   0.000000   0.000000   0.000000   0.000000
    22  C   -0.033325   0.004074   0.001155   0.000121  -0.000004   0.000000
    23  H    0.002672   0.000347   0.000009   0.000001   0.000000   0.000000
    24  C    0.217118  -0.118451   0.003918   0.000353  -0.001050   0.000001
    25  C   -0.035447   0.005074   0.000984   0.000011   0.000053   0.000000
    26  H    0.003049   0.000729   0.000080   0.000001   0.000004   0.000000
    27  C    0.004292  -0.001216  -0.000004   0.000000  -0.000001   0.000000
    28  H   -0.000087  -0.000014   0.000000   0.000000   0.000000   0.000000
    29  C   -0.000172   0.000006  -0.000008   0.000000   0.000001   0.000000
    30  H    0.000007   0.000000   0.000000   0.000000   0.000000   0.000000
    31  C    0.003753   0.000188   0.000011   0.000000   0.000001   0.000000
    32  H   -0.000167  -0.000015   0.000000   0.000000   0.000000   0.000000
    33  C   -0.079399   0.013236   0.000763  -0.000012   0.000123   0.000000
    34  H   -0.006759  -0.000875   0.000018   0.000000   0.000002   0.000000
              7          8          9         10         11         12
     1  P   -0.000045   0.000008   0.003811  -0.000159  -0.074718  -0.006887
     2  C   -0.051870   0.000608  -0.073233   0.004221   0.387593  -0.034801
     3  C   -0.066017   0.004514  -0.043212   0.000119  -0.047310   0.005200
     4  H    0.005454  -0.000073  -0.000147   0.000002   0.004849  -0.000075
     5  C    0.519897  -0.026902  -0.067544   0.004621  -0.035056  -0.000085
     6  H   -0.032240  -0.001399   0.004378  -0.000067   0.000317   0.000002
     7  C    5.101126   0.332586   0.524404  -0.033562  -0.067088   0.005847
     8  H    0.332586   0.475735  -0.025549  -0.001408   0.004501  -0.000072
     9  C    0.524404  -0.025549   5.115612   0.335798   0.513313  -0.026025
    10  H   -0.033562  -0.001408   0.335798   0.470749  -0.016235  -0.001216
    11  C   -0.067088   0.004501   0.513313  -0.016235   5.211800   0.339198
    12  H    0.005847  -0.000072  -0.026025  -0.001216   0.339198   0.442232
    13  C    0.000002   0.000000   0.000025  -0.000013   0.011268  -0.000306
    14  C    0.000176  -0.000003  -0.000342   0.000030  -0.006171   0.000000
    15  H   -0.000168   0.000002   0.000179   0.000001   0.001489  -0.000170
    16  C    0.000035   0.000000  -0.000052   0.000001  -0.000483  -0.000030
    17  H    0.000000   0.000000   0.000000   0.000000   0.000010   0.000000
    18  C    0.000001   0.000000   0.000001   0.000000  -0.000041   0.000000
    19  H    0.000000   0.000000   0.000000   0.000000   0.000000   0.000000
    20  C    0.000000   0.000000   0.000000   0.000000   0.000100   0.000002
    21  H    0.000000   0.000000   0.000000   0.000000   0.000000   0.000000
    22  C   -0.000008   0.000000   0.000011   0.000000   0.000693   0.000017
    23  H    0.000000   0.000000   0.000000   0.000000  -0.000007   0.000000
    24  C   -0.000073   0.000000  -0.001914   0.000001  -0.011167   0.001139
    25  C   -0.000012   0.000000  -0.000829   0.000004  -0.005147  -0.000864
    26  H   -0.000001   0.000000  -0.000006   0.000000  -0.000306   0.000032
    27  C    0.000004   0.000000  -0.000056   0.000001   0.000447   0.000056
    28  H    0.000000   0.000000   0.000001   0.000000   0.000012   0.000003
    29  C    0.000001   0.000000   0.000032   0.000000   0.000230  -0.000175
    30  H    0.000000   0.000000   0.000000   0.000000  -0.000003   0.000003
    31  C    0.000001   0.000000  -0.000064   0.000001  -0.001074   0.000406
    32  H    0.000000   0.000000   0.000002   0.000000   0.000047   0.000001
    33  C   -0.000059   0.000000  -0.000589   0.000014  -0.009203   0.004071
    34  H    0.000001   0.000000  -0.000055   0.000000   0.000301  -0.000641
             13         14         15         16         17         18
     1  P    0.203902  -0.075999  -0.006949   0.003947  -0.000155  -0.000008
     2  C   -0.117776  -0.012030   0.001355  -0.002019   0.000006  -0.000074
     3  C    0.006130  -0.007819   0.000388  -0.001054   0.000007  -0.000027
     4  H    0.000625  -0.000397  -0.000056  -0.000012   0.000000  -0.000001
     5  C   -0.001182  -0.000068   0.000314  -0.000078   0.000001   0.000004
     6  H   -0.000017   0.000017   0.000005   0.000002   0.000000   0.000000
     7  C    0.000002   0.000176  -0.000168   0.000035   0.000000   0.000001
     8  H    0.000000  -0.000003   0.000002   0.000000   0.000000   0.000000
     9  C    0.000025  -0.000342   0.000179  -0.000052   0.000000   0.000001
    10  H   -0.000013   0.000030   0.000001   0.000001   0.000000   0.000000
    11  C    0.011268  -0.006171   0.001489  -0.000483   0.000010  -0.000041
    12  H   -0.000306   0.000000  -0.000170  -0.000030   0.000000   0.000000
    13  C    5.786828   0.391002  -0.034873  -0.072269   0.004101  -0.051655
    14  C    0.391002   5.227996   0.338641   0.512260  -0.016788  -0.068759
    15  H   -0.034873   0.338641   0.441420  -0.026134  -0.001033   0.005893
    16  C   -0.072269   0.512260  -0.026134   5.113199   0.335892   0.525067
    17  H    0.004101  -0.016788  -0.001033   0.335892   0.470788  -0.033050
    18  C   -0.051655  -0.068759   0.005893   0.525067  -0.033050   5.101728
    19  H    0.000588   0.004599  -0.000071  -0.025514  -0.001461   0.333002
    20  C   -0.082914  -0.036022  -0.000112  -0.067265   0.004668   0.519747
    21  H    0.005333   0.000354   0.000002   0.004378  -0.000067  -0.032150
    22  C    0.425064  -0.048303   0.005168  -0.043037   0.000103  -0.066394
    23  H   -0.027912   0.004942  -0.000076  -0.000164   0.000001   0.005484
    24  C   -0.120153   0.010310  -0.000408   0.000170  -0.000017   0.000023
    25  C    0.003821   0.000368   0.000000   0.000011   0.000000  -0.000008
    26  H    0.000332  -0.000010   0.000000   0.000000   0.000000   0.000000
    27  C   -0.000971   0.000082   0.000001   0.000000   0.000000   0.000001
    28  H    0.000001   0.000000   0.000000   0.000000   0.000000   0.000000
    29  C   -0.000088  -0.000036   0.000000   0.000001   0.000000   0.000001
    30  H    0.000000   0.000000   0.000000   0.000000   0.000000   0.000000
    31  C   -0.001961  -0.000186  -0.000025  -0.000049   0.000002   0.000030
    32  H    0.000006   0.000011   0.000000   0.000000   0.000000  -0.000001
    33  C   -0.012288  -0.006779   0.000266  -0.000645   0.000041   0.000219
    34  H    0.001785   0.002442  -0.000344   0.000264  -0.000002  -0.000173
             19         20         21         22         23         24
     1  P    0.000008   0.004854  -0.000094  -0.033325   0.002672   0.217118
     2  C    0.000000  -0.001005   0.000001   0.004074   0.000347  -0.118451
     3  C    0.000000   0.000076   0.000000   0.001155   0.000009   0.003918
     4  H    0.000000   0.000005   0.000000   0.000121   0.000001   0.000353
     5  C    0.000000   0.000000   0.000000  -0.000004   0.000000  -0.001050
     6  H    0.000000   0.000000   0.000000   0.000000   0.000000   0.000001
     7  C    0.000000   0.000000   0.000000  -0.000008   0.000000  -0.000073
     8  H    0.000000   0.000000   0.000000   0.000000   0.000000   0.000000
     9  C    0.000000   0.000000   0.000000   0.000011   0.000000  -0.001914
    10  H    0.000000   0.000000   0.000000   0.000000   0.000000   0.000001
    11  C    0.000000   0.000100   0.000000   0.000693  -0.000007  -0.011167
    12  H    0.000000   0.000002   0.000000   0.000017   0.000000   0.001139
    13  C    0.000588  -0.082914   0.005333   0.425064  -0.027912  -0.120153
    14  C    0.004599  -0.036022   0.000354  -0.048303   0.004942   0.010310
    15  H   -0.000071  -0.000112   0.000002   0.005168  -0.000076  -0.000408
    16  C   -0.025514  -0.067265   0.004378  -0.043037  -0.000164   0.000170
    17  H   -0.001461   0.004668  -0.000067   0.000103   0.000001  -0.000017
    18  C    0.333002   0.519747  -0.032150  -0.066394   0.005484   0.000023
    19  H    0.475641  -0.027212  -0.001373   0.004542  -0.000072   0.000000
    20  C   -0.027212   5.085329   0.337525   0.526949  -0.026816  -0.001577
    21  H   -0.001373   0.337525   0.471476  -0.020772  -0.001365  -0.000016
    22  C    0.004542   0.526949  -0.020772   5.180085   0.335001   0.005189
    23  H   -0.000072  -0.026816  -0.001365   0.335001   0.456311   0.000859
    24  C    0.000000  -0.001577  -0.000016   0.005189   0.000859   5.800761
    25  C    0.000000  -0.000012   0.000000   0.001339   0.000126   0.430753
    26  H    0.000000   0.000001   0.000000   0.000021   0.000002  -0.026250
    27  C    0.000000   0.000000   0.000000   0.000100   0.000008  -0.083198
    28  H    0.000000   0.000000   0.000000   0.000000   0.000000   0.005346
    29  C    0.000000   0.000007   0.000000  -0.000011  -0.000002  -0.051554
    30  H    0.000000   0.000000   0.000000   0.000000   0.000000   0.000549
    31  C    0.000000  -0.000083   0.000002  -0.001140   0.000003  -0.073430
    32  H    0.000000   0.000001   0.000000   0.000006   0.000000   0.004174
    33  C   -0.000001   0.000252   0.000007  -0.006503  -0.000319   0.372726
    34  H    0.000001   0.000129   0.000005   0.000057   0.000049  -0.033252
             25         26         27         28         29         30
     1  P   -0.035447   0.003049   0.004292  -0.000087  -0.000172   0.000007
     2  C    0.005074   0.000729  -0.001216  -0.000014   0.000006   0.000000
     3  C    0.000984   0.000080  -0.000004   0.000000  -0.000008   0.000000
     4  H    0.000011   0.000001   0.000000   0.000000   0.000000   0.000000
     5  C    0.000053   0.000004  -0.000001   0.000000   0.000001   0.000000
     6  H    0.000000   0.000000   0.000000   0.000000   0.000000   0.000000
     7  C   -0.000012  -0.000001   0.000004   0.000000   0.000001   0.000000
     8  H    0.000000   0.000000   0.000000   0.000000   0.000000   0.000000
     9  C   -0.000829  -0.000006  -0.000056   0.000001   0.000032   0.000000
    10  H    0.000004   0.000000   0.000001   0.000000   0.000000   0.000000
    11  C   -0.005147  -0.000306   0.000447   0.000012   0.000230  -0.000003
    12  H   -0.000864   0.000032   0.000056   0.000003  -0.000175   0.000003
    13  C    0.003821   0.000332  -0.000971   0.000001  -0.000088   0.000000
    14  C    0.000368  -0.000010   0.000082   0.000000  -0.000036   0.000000
    15  H    0.000000   0.000000   0.000001   0.000000   0.000000   0.000000
    16  C    0.000011   0.000000   0.000000   0.000000   0.000001   0.000000
    17  H    0.000000   0.000000   0.000000   0.000000   0.000000   0.000000
    18  C   -0.000008   0.000000   0.000001   0.000000   0.000001   0.000000
    19  H    0.000000   0.000000   0.000000   0.000000   0.000000   0.000000
    20  C   -0.000012   0.000001   0.000000   0.000000   0.000007   0.000000
    21  H    0.000000   0.000000   0.000000   0.000000   0.000000   0.000000
    22  C    0.001339   0.000021   0.000100   0.000000  -0.000011   0.000000
    23  H    0.000126   0.000002   0.000008   0.000000  -0.000002   0.000000
    24  C    0.430753  -0.026250  -0.083198   0.005346  -0.051554   0.000549
    25  C    5.185691   0.335859   0.525001  -0.020857  -0.064793   0.004546
    26  H    0.335859   0.454040  -0.028002  -0.001331   0.005343  -0.000071
    27  C    0.525001  -0.028002   5.087049   0.337303   0.520060  -0.027202
    28  H   -0.020857  -0.001331   0.337303   0.471395  -0.032048  -0.001374
    29  C   -0.064793   0.005343   0.520060  -0.032048   5.100067   0.333042
    30  H    0.004546  -0.000071  -0.027202  -0.001374   0.333042   0.475416
    31  C   -0.042156  -0.000144  -0.067901   0.004396   0.523765  -0.025660
    32  H    0.000035   0.000001   0.004724  -0.000067  -0.033064  -0.001452
    33  C   -0.053945   0.004986  -0.035781   0.000355  -0.069075   0.004630
    34  H    0.005166  -0.000076  -0.000087   0.000001   0.005798  -0.000070
             31         32         33         34
     1  P    0.003753  -0.000167  -0.079399  -0.006759
     2  C    0.000188  -0.000015   0.013236  -0.000875
     3  C    0.000011   0.000000   0.000763   0.000018
     4  H    0.000000   0.000000  -0.000012   0.000000
     5  C    0.000001   0.000000   0.000123   0.000002
     6  H    0.000000   0.000000   0.000000   0.000000
     7  C    0.000001   0.000000  -0.000059   0.000001
     8  H    0.000000   0.000000   0.000000   0.000000
     9  C   -0.000064   0.000002  -0.000589  -0.000055
    10  H    0.000001   0.000000   0.000014   0.000000
    11  C   -0.001074   0.000047  -0.009203   0.000301
    12  H    0.000406   0.000001   0.004071  -0.000641
    13  C   -0.001961   0.000006  -0.012288   0.001785
    14  C   -0.000186   0.000011  -0.006779   0.002442
    15  H   -0.000025   0.000000   0.000266  -0.000344
    16  C   -0.000049   0.000000  -0.000645   0.000264
    17  H    0.000002   0.000000   0.000041  -0.000002
    18  C    0.000030  -0.000001   0.000219  -0.000173
    19  H    0.000000   0.000000  -0.000001   0.000001
    20  C   -0.000083   0.000001   0.000252   0.000129
    21  H    0.000002   0.000000   0.000007   0.000005
    22  C   -0.001140   0.000006  -0.006503   0.000057
    23  H    0.000003   0.000000  -0.000319   0.000049
    24  C   -0.073430   0.004174   0.372726  -0.033252
    25  C   -0.042156   0.000035  -0.053945   0.005166
    26  H   -0.000144   0.000001   0.004986  -0.000076
    27  C   -0.067901   0.004724  -0.035781  -0.000087
    28  H    0.004396  -0.000067   0.000355   0.000001
    29  C    0.523765  -0.033064  -0.069075   0.005798
    30  H   -0.025660  -0.001452   0.004630  -0.000070
    31  C    5.115573   0.336667   0.514577  -0.026430
    32  H    0.336667   0.469496  -0.016977  -0.001027
    33  C    0.514577  -0.016977   5.241313   0.337037
    34  H   -0.026430  -0.001027   0.337037   0.438726
 Mulliken atomic charges:
              1
     1  P    0.886687
     2  C   -0.321122
     3  C   -0.275384
     4  H    0.253005
     5  C   -0.236884
     6  H    0.237208
     7  C   -0.238394
     8  H    0.237450
     9  C   -0.257951
    10  H    0.237096
    11  C   -0.202158
    12  H    0.273137
    13  C   -0.316434
    14  C   -0.213517
    15  H    0.275296
    16  C   -0.256420
    17  H    0.236952
    18  C   -0.238861
    19  H    0.237324
    20  C   -0.236626
    21  H    0.236755
    22  C   -0.270197
    23  H    0.250916
    24  C   -0.330881
    25  C   -0.274774
    26  H    0.251719
    27  C   -0.234708
    28  H    0.236964
    29  C   -0.237328
    30  H    0.237640
    31  C   -0.259070
    32  H    0.237596
    33  C   -0.203045
    34  H    0.278008
 Sum of Mulliken atomic charges =   0.00000
 Mulliken charges with hydrogens summed into heavy atoms:
              1
     1  P    0.886687
     2  C   -0.321122
     3  C   -0.022379
     5  C    0.000324
     7  C   -0.000944
     9  C   -0.020855
    11  C    0.070979
    13  C   -0.316434
    14  C    0.061778
    16  C   -0.019468
    18  C   -0.001537
    20  C    0.000129
    22  C   -0.019281
    24  C   -0.330881
    25  C   -0.023055
    27  C    0.002256
    29  C    0.000313
    31  C   -0.021473
    33  C    0.074963
 Sum of Mulliken charges with hydrogens summed into heavy atoms =   0.00000
 Electronic spatial extent (au):  <R**2>=           8813.3972
 Charge=              0.0000 electrons
 Dipole moment (field-independent basis, Debye):
    X=             -0.5349    Y=              0.0518    Z=             -1.4970  Tot=              1.5906
 Quadrupole moment (field-independent basis, Debye-Ang):
   XX=           -107.5025   YY=           -109.4029   ZZ=           -107.7098
   XY=              0.4693   XZ=              0.5269   YZ=              0.2580
 Traceless Quadrupole moment (field-independent basis, Debye-Ang):
   XX=              0.7025   YY=             -1.1979   ZZ=              0.4953
   XY=              0.4693   XZ=              0.5269   YZ=              0.2580
 Octapole moment (field-independent basis, Debye-Ang**2):
  XXX=            376.9560  YYY=             75.0779  ZZZ=            784.1704  XYY=             89.2146
  XXY=            -12.8734  XXZ=            246.1853  XZZ=            139.3174  YZZ=              7.9812
  YYZ=            262.9346  XYZ=              8.8336
 Hexadecapole moment (field-independent basis, Debye-Ang**3):
 XXXX=          -3735.7630 YYYY=          -3202.7132 ZZZZ=          -4854.7173 XXXY=            -71.9373
 XXXZ=           -455.7761 YYYX=            -66.9969 YYYZ=           -143.9526 ZZZX=           -587.2405
 ZZZY=           -143.9798 XXYY=          -1016.6754 XXZZ=          -1365.8049 YYZZ=          -1388.8195
 XXYZ=            -46.4398 YYXZ=            -28.6609 ZZXY=            -14.2060
 N-N= 1.198286956456D+03 E-N=-4.017753030609D+03  KE= 6.930506525704D+02
 1\1\GINC-EM026\FOpt\RM062X\LANL2DZ\C18H15P1\U0818159\06-Jul-2012\0\\# 
 opt lanl2dz nosymm geom=connectivity m062x output=wfx\\pdto\\0,1\P,-0.
 6137140179,-0.1951619164,-1.1750956549\C,-1.7449078691,-1.600309064,-1
 .7060411501\C,-2.6862763051,-2.0646641197,-0.7657479076\H,-2.727213514
 6,-1.6132788021,0.2227057969\C,-3.5694971882,-3.1036518149,-1.09257038
 06\H,-4.2919537752,-3.4493678527,-0.3600913547\C,-3.5103870107,-3.7026
 759686,-2.361350397\H,-4.1869682161,-4.513087057,-2.6130548213\C,-2.56
 77382798,-3.2538811227,-3.298226639\H,-2.5121816725,-3.7155769674,-4.2
 789528381\C,-1.6917258134,-2.2051455158,-2.9735527451\H,-0.9673472849,
 -1.8637288844,-3.7075983153\C,-1.6871572377,1.2913209366,-1.5949730838
 \C,-2.913469224,1.2063809164,-2.2765342299\H,-3.2951755017,0.238404366
 5,-2.5893622829\C,-3.6503663689,2.3689858786,-2.5589425481\H,-4.597061
 4114,2.290180221,-3.0839951834\C,-3.1648333317,3.6260375238,-2.1698879
 711\H,-3.7337637221,4.5231925625,-2.3922805168\C,-1.9406165953,3.71806
 99054,-1.4874845031\H,-1.5601450738,4.6863154223,-1.1783875148\C,-1.21
 24653128,2.5561903996,-1.1954535012\H,-0.2707254925,2.6315230015,-0.65
 70189358\C,0.588656648,-0.1511608372,-2.6208747288\C,1.7724555867,-0.9
 047107867,-2.5049842008\H,1.9660923941,-1.4634259583,-1.5927441734\C,2
 .7038752923,-0.9375648151,-3.5537989018\H,3.6112498349,-1.5244706209,-
 3.4531284967\C,2.4653024,-0.2047845118,-4.7270361606\H,3.1870435836,-0
 .2243414447,-5.5374371473\C,1.292887703,0.5575939976,-4.8452395424\H,1
 .1042087403,1.1293359519,-5.7483131504\C,0.3583453778,0.5828173898,-3.
 7980773599\H,-0.5465843412,1.1762885872,-3.8979134599\\Version=EM64L-G
 09RevC.01\HF=-701.0282137\RMSD=3.933e-09\RMSF=1.184e-05\Dipole=-0.2104
 381,0.0203801,-0.5889795\Quadrupole=0.5223249,-0.8905825,0.3682576,0.3
 488872,0.3917517,0.191812\PG=C01 [X(C18H15P1)]\\@

 Writing a WFNX file to fosfina.wfx.


 COLLEGE PROFESSOR: SOMEONE WHO TALKS IN OTHER PEOPLE'S SLEEP.
 Job cpu time:  0 days  1 hours 14 minutes 38.3 seconds.
 File lengths (MBytes):  RWF=     28 Int=      0 D2E=      0 Chk=      5 Scr=      1
 Normal termination of Gaussian 09 at Fri Jul  6 11:32:23 2012.
